default_name
  5805
 107.0110000 108.5970000 144.4750000 107.5758647 109.1885846 145.0675002
 107.5395699 108.3693979 143.6449930 106.6125912 107.8592432 145.0381029
 105.8810000 109.3750000 144.0080000 105.9114247 109.3961977 142.9186313
 104.9684075 108.8772165 144.3358504 105.8810000 110.7950000 144.5280000
 106.0010000 111.0220000 145.7230000 105.7540000 111.7570000 143.6210000
 105.7184076 111.5053900 142.6434905 105.7010000 113.1700000 143.9730000
 105.4243003 113.2911648 145.0203087 107.0430000 113.8810000 143.7340000
 107.4057704 113.6274102 142.7379131 106.8770000 115.3700000 143.8420000
 106.5146708 115.6244163 144.8380376 107.8370721 115.8565696 143.6699183
 106.1586259 115.7110380 143.0965248 108.0740000 113.4050000 144.7240000
 108.2173638 112.3303224 144.6116750 109.0181536 113.9180569 144.5411168
 107.7334876 113.6217342 145.7365109 104.6030000 113.8020000 143.1350000
 104.6490000 113.7400000 141.9030000 103.6140000 114.3970000 143.7910000
 103.6763503 114.4937070 144.7944239 102.4140000 114.8820000 143.1240000
 102.5469057 114.9139322 142.0426048 101.1920000 114.0000000 143.4440000
 101.0445804 113.9807334 144.5238127  99.9500000 114.5430000 142.7760000
 100.0964991 114.5621380 141.6960589  99.0994540 113.9047925 143.0155061
  99.7569235 115.5542932 143.1339235 101.4430000 112.5740000 143.0100000
 102.3120348 112.1807449 143.5374761 100.5703779 111.9638050 143.2430071
 101.6278463 112.5476892 141.9361097 102.1570000 116.3150000 143.5550000
 102.3190000 116.6520000 144.7300000 101.7580000 117.1520000 142.6070000
 101.8133609 116.8567665 141.6427014 101.2790000 118.4940000 142.8900000
 100.9811374 118.5800424 143.9349755 102.3510000 119.5400000 142.6010000
 102.6529910 119.4723464 141.5558567 101.9517939 120.5346209 142.7996553
 103.2153243 119.3615363 143.2406822 100.0440000 118.7490000 142.0450000
 100.0100000 118.3790000 140.8700000  99.0300000 119.3660000 142.6370000
  99.1154981 119.6747166 143.5948536  97.7650000 119.5790000 141.9550000
  97.9283935 119.6173852 140.8780003  96.7840000 118.4480000 142.2600000
  96.6032912 118.4028180 143.3339660  95.8432850 118.6325150 141.7412421
  97.2045956 117.5006787 141.9226856  97.1740000 120.9100000 142.3750000
  97.2350000 121.2750000 143.5500000  96.5990000 121.6260000 141.4170000
  96.6693063 121.3028474 140.4626789  95.9090000 122.8810000 141.6710000
  95.6803616 122.9823704 142.7319183  96.7590000 124.0760000 141.2380000
  96.9884675 123.9934029 140.1756336  96.2083711 124.9990087 141.4195572
  97.6869526 124.0886651 141.8097016  94.5840000 122.8600000 140.9260000
  94.5620000 122.9320000 139.6960000  93.4870000 122.7510000 141.6660000
  93.5742370 122.6987364 142.6708669  92.1570000 122.6650000 141.0840000
  92.2414565 122.5906986 139.9998203  91.4030000 121.4460000 141.5980000
  91.6821384 121.3178664 142.6438311  90.3402574 121.6790919 141.5320730
  91.6870000 120.1650000 140.8390000  90.9075126 119.4438427 141.0848300
  91.6432016 120.3980581 139.7751086  93.0420000 119.5760000 141.1710000
  93.3620000 119.4610000 142.3680000  93.7890000 119.2180000 140.2390000
  91.3560000 123.9210000 141.3950000  91.4020000 124.4380000 142.5130000
  90.6120000 124.3990000 140.3960000  90.8173805 124.0875805 139.4574180
  89.5710000 125.4130000 140.5790000  89.1521391 125.6889569 139.6112694
  88.4460000 124.8770000 141.4630000  88.8969820 124.5880389 142.4123239
  87.7504110 125.6999472 141.6273592  87.7040000 123.7010000 140.8810000
  87.1542750 124.0322557 139.9999933  88.4257363 122.9369195 140.5922444
  86.7360000 123.1240000 141.8920000  87.3083029 122.7055116 142.7199105
  86.0997806 123.9285533 142.2608067  85.8740000 122.0410000 141.2760000
  86.5150497 121.3727557 140.7010170  85.3938846 121.4814583 142.0788085
  84.8350000 122.6180000 140.3850000  85.2796877 123.1361662 139.6407848
  84.2782514 121.8732401 139.9907112  84.2406187 123.2369114 140.9176900
  90.1300000 126.7120000 141.1500000  89.7770000 127.1360000 142.2460000
  90.9980000 127.3570000 140.3860000  91.3072081 126.9441892 139.5176240
  91.5490000 128.6440000 140.7710000  91.0582032 128.9434609 141.6970350
  93.0590000 128.5630000 141.0210000  93.4002646 129.5093185 141.4406665
  93.3770000 127.4400000 141.9850000  93.0364229 126.4932342 141.5657847
  94.4534059 127.3969392 142.1511179  92.8704701 127.6200608 142.9332121
  93.7210000 128.2670000 139.7940000  94.6675548 128.2152077 139.9454987
  91.2640000 129.6450000 139.6620000  90.5530000 129.3480000 138.7020000
  91.8060000 130.8510000 139.8110000  92.1088060 131.1948259 140.7111064
  91.9230000 131.7350000 138.6590000  91.1928799 131.4488900 137.9019234
  91.6670000 133.1850000 139.0600000  92.4210305 133.4455951 139.8027162
  91.8137135 133.7910214 138.1659568  90.2960000 133.4470000 139.6240000
  90.1882543 132.8784461 140.5477089  90.2096874 134.5116654 139.8411171
  89.2120000 133.0420000 138.6550000  89.4812732 133.3933115 137.6589221
  89.1348551 131.9547581 138.6477053  87.8790000 133.6400000 139.0580000
  87.1128220 133.2703228 138.3765232  87.6473126 133.3182525 140.0733318
  87.9140000 135.1260000 139.0050000  88.1282471 135.4243525 138.0641580
  87.0139164 135.4938962 139.2781334  88.6236026 135.4687728 139.6367199
  93.2990000 131.5920000 138.0320000  93.4270000 131.3850000 136.8230000
  94.3390000 131.6860000 138.8500000  94.1695070 131.9516350 139.8095882
  95.7120000 131.4590000 138.4300000  95.7333828 131.2141033 137.3680831
  96.5660000 132.7030000 138.6610000  96.6488807 132.8485637 139.7380521
  97.5536379 132.5047713 138.2446145  95.9960000 133.9440000 138.0300000
  95.9989019 133.8244725 136.9465769  94.9711523 134.0730939 138.3780289
  96.7780000 135.1730000 138.3780000  97.2590000 135.3140000 139.4910000
  96.9160000 136.0730000 137.4270000  97.4344183 136.9204169 137.6092867
  96.5028065 135.9118189 136.5195899  96.2460000 130.2800000 139.2210000
  96.1630000 130.2700000 140.4500000  96.7720000 129.2860000 138.5240000
  96.8421202 129.3163163 137.5168935  97.2650000 128.1160000 139.2090000
  97.4256816 128.3841916 140.2532001  96.4970917 127.3449575 139.1464725
  98.5510000 127.5750000 138.6380000  98.6740000 127.3930000 137.4280000
  99.5160000 127.3080000 139.5030000  99.3669056 127.5244969 140.4781919
 100.8000000 126.7520000 139.1090000 100.8190577 126.5385987 138.0402644
 101.9690000 127.6990000 139.4430000 101.9963284 127.8685808 140.5193804
 103.2750000 127.0880000 138.9970000 103.2486007 126.9185422 137.9205763
 104.0944956 127.7651985 139.2376859 103.4264485 126.1383598 139.5101748
 101.7710000 129.0440000 138.7930000 100.8441429 129.4897056 139.1540878
 102.6083288 129.6956134 139.0427603 101.7170993 128.9209606 137.7113083
 100.9720000 125.4260000 139.8220000 100.7010000 125.3200000 141.0200000
 101.4140000 124.4160000 139.0870000 101.5485011 124.5377803 138.0934315
 101.6680000 123.1030000 139.6620000 101.6728652 123.1567726 140.7506616
 100.6120000 122.0930000 139.2290000 100.6014051 122.0213043 138.1414121
 100.8456855 121.1171452 139.6546744  99.6325838 122.4171709 139.5807902
 103.0570000 122.6640000 139.2320000 103.3050000 122.4560000 138.0430000
 103.9540000 122.5290000 140.1990000 103.6765200 122.7548080 141.1435183
 105.3230000 122.1000000 139.9670000 105.4575019 121.8874391 138.9064217
 106.3280000 123.1730000 140.3810000 105.7662215 124.0766448 140.6174959
 106.8383027 122.8182554 141.2764594 107.3400000 123.4780000 139.3170000
 106.8845030 123.3556145 138.3343276 107.6516893 124.5145039 139.4458741
 108.5570000 122.5630000 139.4310000 108.7380000 121.9510000 140.5030000
 109.3190000 122.4350000 138.4490000 105.5970000 120.8320000 140.7430000
 105.2700000 120.7430000 141.9280000 106.2160000 119.8670000 140.0830000
 106.3996280 119.9762299 139.0958582 106.6040000 118.6240000 140.7210000
 106.7253364 118.7669639 141.7947495 105.5560000 117.5410000 140.4890000
 105.4299500 117.3800517 139.4183427 105.8812668 116.6131640 140.9595552
 104.6065574 117.8545031 140.9230204 107.9530000 118.2010000 140.1710000
 108.1560000 118.1990000 138.9560000 108.8710000 117.8500000 141.0630000
 108.6364263 117.8507600 142.0453818 110.2290000 117.4940000 140.6780000
 110.2681358 117.2058875 139.6274960 111.1850000 118.6650000 140.8990000
 111.1637265 118.9590198 141.9483807 112.1969018 118.3649721 140.6267167
 110.8774170 119.5076676 140.2798043 110.6640000 116.2930000 141.4930000
 110.5890000 116.3220000 142.7220000 111.1220000 115.2460000 140.8210000
 111.1768727 115.2454661 139.8124922 111.5590000 114.0650000 141.5320000
 110.7717360 113.7679018 142.2248544 111.7249197 113.2674701 140.8077652
 112.8350000 114.2980000 142.3080000 112.8270000 114.3360000 143.5380000
 113.9390000 114.4580000 141.5970000 113.9061409 114.3100620 140.5984340
 115.2100000 114.8100000 142.1980000 115.0810459 114.9064499 143.2760387
 116.2780000 113.7530000 141.9270000 116.4027562 113.6995155 140.8454851
 117.2012430 114.1125293 142.3813799 115.9560000 112.3860000 142.4620000
 115.5604963 112.4806737 143.4732935 115.2080532 111.9175430 141.8222925
 117.2050000 111.5310000 142.4870000 117.7063948 111.6264868 141.5238881
 117.8599411 111.9020020 143.2753585 116.8800000 110.0720000 142.7450000
 116.4097614 109.9912207 143.7250260 116.1826281 109.7330457 141.9789180
 118.1030000 109.2260000 142.7110000 118.7491515 109.5396447 143.4210810
 117.8515679 108.2635787 142.8860062 118.5386511 109.3003757 141.8028285
 115.6630000 116.1490000 141.6440000 115.2400000 116.5740000 140.5690000
 116.5250000 116.8200000 142.3970000 116.8139833 116.4652841 143.2974247
 117.0540000 118.1000000 141.9590000 117.1805357 118.0905321 140.8764113
 116.1230000 119.2540000 142.3320000 116.1103801 119.3650482 143.4162552
 116.6030000 120.5440000 141.6980000 116.6154462 120.4338668 140.6136498
 115.9303531 121.3566011 141.9724534 117.6089478 120.7707211 142.0512241
 114.7970000 118.9720000 141.8780000 114.2164313 119.6990824 142.1144139
 118.4120000 118.3040000 142.5990000 118.5530000 118.1610000 143.8140000
 119.4020000 118.6260000 141.7830000 119.2449914 118.5795882 140.7863588
 120.7230000 119.0110000 142.2560000 120.7210865 119.0370156 143.3456874
 121.7930000 118.0280000 141.7940000 121.5664761 117.7661713 140.7604470
 122.7495740 118.5489460 141.8350063 121.8690000 116.7710000 142.6260000
 121.8168917 117.0477210 143.6790010 121.0189899 116.1364540 142.3751292
 123.1550000 116.0170000 142.3660000 123.1880568 115.7355906 141.3134721
 123.9959413 116.6722984 142.5929386 123.2400000 114.7690000 143.2260000
 123.1837820 115.0709245 144.2718402 122.3893655 114.1309717 142.9863333
 124.5040000 114.0180000 142.9940000 125.2923328 114.6088930 143.2164334
 124.5212224 113.1977757 143.5830971 124.5560870 113.7377680 142.0250541
 120.9910000 120.4040000 141.7210000 121.1700000 120.5850000 140.5150000
 120.9970000 121.3840000 142.6060000 120.7527923 121.2330136 143.5743311
 121.3080000 122.7310000 142.1790000 120.7956916 122.9514217 141.2424886
 120.8540000 123.7350000 143.2300000 121.2332457 123.3988686 144.1950325
 121.2982494 124.6987946 142.9813185 119.3600000 123.8760000 143.3010000
 118.9171664 122.8812029 143.3497648 119.1143934 124.4273592 144.2086231
 118.8140000 124.6100000 142.1050000 119.5410000 125.4700000 141.5700000
 117.6700000 124.3280000 141.6950000 122.8000000 122.8620000 141.9160000
 123.6100000 122.0530000 142.3670000 123.1590000 123.8980000 141.1620000
 122.4524509 124.5457450 140.8437011 124.5210000 124.1350000 140.7790000
 125.1054296 123.2489638 141.0269537 124.5500684 124.2990590 139.7018097
 125.1250000 125.3340000 141.4760000 124.6190000 125.8230000 142.4920000
 126.2280000 125.8120000 140.9200000 126.6196969 125.3276081 140.1249922
 126.9240000 126.9850000 141.4240000 126.6731018 127.1851351 142.4656790
 128.4450000 126.8140000 141.3100000 128.7279248 126.8524748 140.2580625
 129.1570000 127.9070000 142.0610000 128.8749141 127.8688710 143.1131762
 130.2343671 127.7694654 141.9689958 128.8780540 128.8753011 141.6454478
 128.8530000 125.4570000 141.8270000 128.3607066 124.6811527 141.2406467
 129.9339046 125.3451457 141.7419500 128.5596384 125.3626943 142.8725363
 126.4540000 128.1830000 140.6260000 126.1680000 128.0630000 139.4330000
 126.3570000 129.3360000 141.2690000 126.4157757 129.3730467 142.2766072
 126.0560000 130.5610000 140.5520000 126.5104848 130.5237522 139.5619721
 124.5450000 130.7490000 140.3900000 124.5250181 131.6781699 139.8204886
 124.3031998 129.9146417 139.7316088 123.5230000 130.8210000 141.5120000
 123.8560034 130.1836530 142.3311449 123.3680000 132.2270000 142.0050000
 123.0345498 132.8648994 141.1864683 122.6310904 132.2519283 142.8077725
 124.3254143 132.5887072 142.3800016 122.2020000 130.3200000 140.9890000
 122.3114839 129.2892859 140.6517447 121.4559350 130.3648340 141.7823966
 121.8814430 130.9428772 140.1539155 126.7060000 131.7510000 141.2370000
 126.5110000 131.9730000 142.4320000 127.5000000 132.4890000 140.4740000
 127.6643079 132.1751737 139.5281589 128.1420000 133.7160000 140.9140000
 128.1249449 133.7583155 142.0030444 129.5940000 133.7950000 140.4450000
 129.5794126 133.8996789 139.3601365 129.9790327 134.7111682 140.8927563
 130.4800000 132.6410000 140.8250000 130.3390000 131.4060000 140.2290000
 129.5643310 131.2697903 139.4743912 131.1480000 130.3660000 140.5690000
 131.0178013 129.3906710 140.1000827 132.1300000 130.5500000 141.5040000
 132.9500000 129.5080000 141.8480000 132.7473002 128.6986203 141.3732190
 132.3000000 131.7650000 142.1000000 133.0822855 131.9102978 142.8449956
 131.4830000 132.8020000 141.7580000 131.6170338 133.7780916 142.2242405
 127.3580000 134.8660000 140.3220000 127.2280000 134.9580000 139.1010000
 126.8420000 135.7400000 141.1710000 126.9614911 135.6010996 142.1642411
 126.0510000 136.8750000 140.7240000 126.0652471 136.9374010 139.6358813
 124.5960000 136.7690000 141.1890000 124.5619082 136.8594621 142.2747042
 123.7690000 137.8590000 140.5700000 123.8022321 137.7689094 139.4842375
 122.7371703 137.7705041 140.9099946 124.1664834 138.8298697 140.8658388
 124.0460000 135.4350000 140.8090000 124.6357216 134.6500196 141.2824304
 123.0102869 135.3606179 141.1404593 124.0896485 135.3184886 139.7261239
 126.7080000 138.1350000 141.2490000 126.7720000 138.3450000 142.4630000
 127.1970000 138.9700000 140.3430000 127.0965126 138.7824912 139.3556591
 127.8870000 140.1710000 140.7440000 128.1696610 140.7005978 139.8342043
 127.1797795 140.7761497 141.3112146 129.1170000 139.9430000 141.5800000
 129.4430000 140.7860000 142.4140000 129.8180000 138.8350000 141.3780000
 129.5383223 138.2038335 140.6407696 130.9430000 138.4600000 142.2150000
 130.9802090 139.0988922 143.0973443 130.8000000 137.0150000 142.6670000
 130.5637278 136.3937196 141.8031219 131.7417781 136.6843646 143.1049889
 129.7730000 136.9000000 143.6220000 129.6938950 135.9839671 143.8980904
 132.2700000 138.6570000 141.4920000 132.3280000 138.9290000 140.2950000
 133.3520000 138.5140000 142.2520000 133.2314459 138.2871945 143.2287934
 134.7060000 138.6890000 141.7460000 134.7038680 138.5839790 140.6610736
 135.2550000 140.0660000 142.1010000 135.0351694 140.2265508 143.1564606
 136.3345569 140.0173201 141.9585670 134.6970000 141.1980000 141.2980000
 134.7039145 140.9367585 140.2397912 133.6744307 141.4041976 141.6141275
 135.5460000 142.4210000 141.5180000 135.6797791 142.5539341 142.5915598
 136.5155665 142.2510664 141.0498516 134.9170000 143.6580000 140.9340000
 134.7853342 143.5181265 139.8610601 133.9451773 143.8179334 141.4009916
 135.7820000 144.8390000 141.1760000 136.6824176 144.6911868 140.7429883
 135.3485756 145.6606366 140.7795702 135.9037815 144.9690398 142.1701620
 135.5860000 137.6110000 142.3500000 135.6440000 137.4750000 143.5720000
 136.2730000 136.8540000 141.5090000 136.1475208 136.9783694 140.5145722
 137.1780000 135.8130000 141.9640000 137.1379211 135.7660094 143.0522485
 136.7750000 134.4500000 141.4010000 136.9807070 134.4351440 140.3306897
 137.5490000 133.3450000 142.0770000 137.3434269 133.3589302 143.1473482
 137.2475435 132.3831706 141.6621418 138.6159121 133.4935869 141.9105033
 135.3830000 134.2310000 141.6430000 135.1276077 133.3754729 141.2902274
 138.5970000 136.1580000 141.5430000 138.8100000 136.7720000 140.4960000
 139.5620000 135.7870000 142.3790000 139.3061889 135.3867280 143.2703149
 140.9800000 135.9610000 142.0800000 141.1107906 136.0663591 141.0030170
 141.5470000 137.2000000 142.7630000 141.1700296 137.2082576 143.7857045
 142.6318697 137.0953069 142.7770417 141.1800000 138.4780000 142.0880000
 141.3000131 138.3519033 141.0119901 140.1378765 138.7051585 142.3126767
 142.0480000 139.6030000 142.5580000 142.2119685 139.5045995 143.6310940
 143.0054327 139.5575373 142.0390055 141.3840000 140.9240000 142.2710000
 141.0968308 140.9381963 141.2196043 140.4911753 140.9971040 142.8919823
 142.2770000 142.0710000 142.5540000 143.1041767 142.0036805 141.9783729
 141.7929488 142.9332608 142.3483288 142.5428711 142.0582736 143.5282945
 141.7050000 134.7140000 142.5490000 141.8510000 134.5040000 143.7530000
 142.1600000 133.8910000 141.6120000 141.9901750 134.1077689 140.6402644
 142.8630000 132.6530000 141.9320000 143.0071073 132.5879672 143.0104725
 142.0760000 131.4310000 141.4710000 141.9731539 131.5032972 140.3882743
 142.6697824 130.5518240 141.7211441 140.7130000 131.3100000 142.0970000
 140.8297729 131.3899192 143.1777765 140.1060841 132.1400100 141.7352878
 140.0310000 130.0020000 141.7590000 140.7370000 129.0260000 141.4430000
 138.7870000 129.9470000 141.8120000 144.2300000 132.6900000 141.2720000
 144.3270000 132.6870000 140.0440000 145.2810000 132.7090000 142.0800000
 145.1645094 132.6693110 143.0824740 146.6220000 132.7870000 141.5490000
 147.3287487 132.6777107 142.3715943 146.7628951 131.9721120 140.8389257
 146.8820000 134.0990000 140.8490000 147.0650000 134.1270000 139.6360000
 146.8990000 135.1960000 141.5890000 146.7697493 135.1248877 142.5881680
 147.0490000 136.5190000 141.0060000 147.3309664 136.4598654 139.9547639
 145.7500000 137.3400000 141.1220000 145.3830239 137.2693687 142.1459331
 145.9890000 138.7900000 140.7720000 146.3555761 138.8614758 139.7479814
 145.0551894 139.3448716 140.8626408 146.7289295 139.2113677 141.4524816
 144.6830000 136.7560000 140.2320000 144.4822014 135.7273751 140.5315211
 143.7704915 137.3451582 140.3232167 145.0235601 136.7725158 139.1966996
 148.1970000 137.2240000 141.7050000 148.3040000 137.1760000 142.9320000
 149.0640000 137.8610000 140.9290000 149.0253868 137.7139340 139.9305112
 150.1070000 138.7260000 141.4590000 150.1020914 138.6809188 142.5480559
 151.5010000 138.3260000 140.9580000 151.4467091 138.0863194 139.8960655
 152.4620000 139.4570000 141.1660000 152.5171794 139.6969620 142.2278260
 153.4495231 139.1658709 140.8080302 152.1192476 140.3319419 140.6136423
 151.9900000 137.1090000 141.6940000 151.3007690 136.2812910 141.5267862
 152.9800416 136.8361972 141.3286292 152.0440944 137.3262330 142.7607636
 149.7610000 140.1460000 141.0520000 149.6850000 140.4590000 139.8600000
 149.5440000 141.0000000 142.0400000 149.6955315 140.6900445 142.9892445
 149.0710000 142.3550000 141.8260000 149.0318482 142.5729838 140.7587374
 147.6660000 142.5170000 142.4100000 146.9974153 141.7227047 142.0780532
 147.7518482 142.4886672 143.4962446 146.9970000 143.8110000 142.0670000
 147.6430000 145.0250000 142.1110000 146.8010000 145.9840000 141.7780000
 147.1280198 147.0231372 141.7412462 145.6260000 145.4380000 141.5350000
 144.7876775 145.9298580 141.2604258 145.7190000 144.0810000 141.7150000
 144.8422637 143.4503345 141.5677056 150.0420000 143.3150000 142.4870000
 150.3200000 143.1890000 143.6800000 150.5640000 144.2590000 141.7170000
 150.4181714 144.2441331 140.7176941 151.3550000 145.3350000 142.2800000
 151.5727977 146.0221344 141.4623756 150.7234757 145.8341444 143.0149363
 152.6550000 144.9290000 142.9420000 152.7960000 145.0560000 144.1570000
 153.6170000 144.4440000 142.1670000 153.4103056 144.2512945 141.1973396
 154.9490000 144.1260000 142.6660000 154.9877299 144.2356602 143.7497776
 155.3600000 142.6920000 142.3030000 155.2022546 142.5357190 141.2358581
 156.8100000 142.4640000 142.6340000 156.9684459 142.6196570 143.7011301
 157.0870323 141.4430764 142.3711910 157.4264117 143.1638687 142.0697997
 154.5020000 141.7120000 143.0450000 153.4572448 141.8655508 142.7747948
 154.7991532 140.6966350 142.7826385 154.6248334 141.8602141 144.1178678
 155.9200000 145.1400000 142.0860000 155.9070000 145.3960000 140.8790000
 156.7500000 145.7260000 142.9420000 156.6982806 145.4903881 143.9227709
 157.7130000 146.7380000 142.5240000 157.8234475 146.7229420 141.4397151
 157.2670000 148.1360000 142.9500000 157.1608453 148.1694099 144.0343039
 158.0118491 148.8670941 142.6356729 156.3096994 148.3701763 142.4843432
 159.0690000 146.4080000 143.1230000 159.2350000 146.4550000 144.3420000
 160.0310000 146.0780000 142.2700000 159.8062724 146.0057397 141.2879739
 161.3920000 145.7850000 142.6890000 161.4597492 145.8527630 143.7747796
 161.8190000 144.3870000 142.2610000 161.9245170 144.3632902 141.1763783
 163.1410000 144.0200000 142.9050000 163.0361356 144.0430431 143.9896991
 163.4335401 143.0183634 142.5899707 163.9054287 144.7342822 142.5991401
 160.8240000 143.4410000 142.6600000 161.0935306 142.5600454 142.3900507
 162.3400000 146.8110000 142.0920000 162.2450000 147.1370000 140.9090000
 163.2520000 147.3180000 142.9140000 163.2382007 147.0341269 143.8831878
 164.2470000 148.2940000 142.4950000 164.2354328 148.4073926 141.4109762
 164.0190000 149.6670000 143.1330000 163.9684880 149.5530731 144.2158520
 165.1490000 150.6030000 142.7780000 165.1998511 150.7177952 141.6952548
 164.9741012 151.5755123 143.2381421 166.0900999 150.1924685 143.1439187
 162.7080000 150.2360000 142.6750000 161.8988643 149.5667484 142.9674105
 162.5549309 151.2126207 143.1342184 162.7166633 150.3424834 141.5902479
 165.6070000 147.7380000 142.8810000 165.8970000 147.5710000 144.0690000
 166.4370000 147.4490000 141.8840000 166.1454725 147.6417190 140.9363870
 167.7410000 146.8300000 142.0940000 168.0370734 146.8954372 143.1409755
 167.7230000 145.3630000 141.6840000 167.4370816 145.2817783 140.6353086
 168.7151929 144.9339284 141.8238251 167.0038272 144.8221017 142.2990762
 168.7700000 147.6000000 141.2850000 168.8520000 147.4320000 140.0670000
 169.5670000 148.4270000 141.9600000 169.4926434 148.5365030 142.9612889
 170.5290000 149.2570000 141.2430000 170.0330456 149.7796739 140.4251122
 171.1370000 150.2930000 142.1870000 170.3761794 150.5553645 142.9221300
 171.9818879 149.8236558 142.6909648 171.6050000 151.5440000 141.4780000
 172.4800010 151.2855193 140.8816262 170.7981617 151.8639532 140.8186510
 171.9570000 152.6710000 142.4290000 173.0090000 153.3130000 142.2230000
 171.1870000 152.9270000 143.3770000 171.6260000 148.4210000 140.5910000
 172.2280000 148.8470000 139.6030000 171.8940000 147.2340000 141.1190000
 171.2733354 146.8568780 141.8208930 173.0620000 146.4500000 140.7360000
 173.3427082 146.6803262 139.7082588 174.2470000 146.7780000 141.6530000
 174.6021284 147.7632649 141.3509469 173.8436596 146.8319981 142.6641878
 175.4010000 145.7930000 141.6210000 175.2327217 145.0187864 142.3695830
 175.4556541 145.3363920 140.6327571 176.7160000 146.5160000 141.9220000
 177.0198405 147.0602247 141.0277968 176.5405592 147.2215880 142.7340748
 177.8250000 145.5380000 142.3260000 177.8512550 144.7509911 141.5723235
 178.7646163 146.0901372 142.3068954 177.6350000 144.9320000 143.6670000
 176.7645919 144.4199715 143.6847821 178.4000114 144.3024908 143.8634070
 177.6110718 145.6610618 144.3655667 172.7270000 144.9760000 140.8410000
 172.4700000 144.4800000 141.9390000 172.7240000 144.2790000 139.6970000
 173.0269863 144.7124056 138.8365012 172.3260000 142.8430000 139.6630000
 172.2953409 142.4364552 140.6738811 170.9400000 142.6820000 139.0280000
 170.7270801 141.6140761 138.9800000 169.8380000 143.3810000 139.7880000
 170.0500018 144.4491054 139.8360190 168.8874696 143.2223090 139.2786786
 169.7800032 142.9768245 140.7986330 170.9820000 143.2180000 137.7060000
 170.1194947 143.1240533 137.2950754 173.2820000 142.0070000 138.8040000
 173.4090000 142.3060000 137.6050000 173.8990000 140.9750000 139.3830000
 173.7972668 140.8023936 140.3729276 174.7530000 140.0520000 138.5910000
 174.6933523 140.3030523 137.5319844 176.2100000 140.1740000 139.0410000
 176.4995046 141.2130226 138.8837795 176.2272886 139.9499592 140.1075865
 177.1870000 139.2600000 138.3150000 176.8505492 138.2345664 138.4679303
 177.1360990 139.5041104 137.2539056 178.6140000 139.3990000 138.7960000
 178.9198256 140.4326065 138.6340514 178.6274140 139.1797007 139.8636270
 179.5710000 138.4720000 138.0790000 179.2398934 137.4457011 138.2376809
 179.5405608 138.7025037 137.0140865 180.9580000 138.6260000 138.5780000
 180.9865038 138.4120376 139.5646648 181.5675091 137.9940910 138.0787108
 181.2651549 139.5768145 138.4306676 174.2550000 138.6230000 138.8200000
 174.2380000 138.1900000 139.9800000 173.9500000 137.8960000 137.7440000
 174.0870710 138.2747895 136.8178092 173.4410000 136.5080000 137.8680000
 173.3524033 136.2128235 138.9135241 172.0560000 136.4640000 137.2300000
 172.1781370 136.6209168 136.1582916 171.6397151 135.4721788 137.4063450
 171.1160000 137.5130000 137.7900000 170.9952571 137.2425128 138.8389798
 171.5991464 138.4875541 137.7199065 169.7540000 137.5750000 137.1240000
 169.4610000 136.6930000 136.2950000 169.0120000 138.5350000 137.4020000
 174.3760000 135.5660000 137.1060000 174.5790000 135.7960000 135.9040000
 174.8860000 134.5250000 137.7650000 174.7066641 134.4177684 138.7531495
 175.7450000 133.5160000 137.0910000 175.7786226 133.6966376 136.0165984
 177.1610000 133.6240000 137.6480000 177.5105019 134.6373667 137.4504256
 177.0987156 133.4651250 138.7245591 178.1360000 132.6250000 137.0440000
 177.7836461 131.6141434 137.2492232 178.1949403 132.7768692 135.9662413
 179.5170000 132.7820000 137.6290000 180.4380000 132.0380000 137.3030000
 179.6670000 133.7570000 138.5100000 180.5686868 133.9128858 138.9375067
 178.8791679 134.3411644 138.7511926 175.1480000 132.1290000 137.3470000
 175.0140000 131.7680000 138.5220000 174.8880000 131.3520000 136.2930000
 175.1016951 131.6658424 135.3570851 174.2220000 130.0280000 136.4600000
 174.2391137 129.6554689 137.4842201 172.7580000 130.0850000 135.9810000
 172.7443920 130.4722495 134.9622008 172.1040000 128.7130000 136.0100000
 172.1168182 128.3252735 137.0286289 171.0730264 128.7940129 135.6655717
 172.6525580 128.0345580 135.3566225 171.9310000 131.0910000 136.7650000
 172.3618947 132.0854641 136.6489272 170.9079026 131.0927438 136.3890103
 171.9293436 130.8171936 137.8200489 174.9880000 128.9440000 135.7000000
 175.1030000 129.0690000 134.4720000 175.4010000 127.8770000 136.3840000
 175.2781176 127.8731964 137.3864893 176.0530000 126.7340000 135.7650000
 176.1090841 126.8878832 134.6873759 177.4670000 126.5400000 136.3040000
 177.4100588 126.2596154 137.3557806 178.1840000 125.4560000 135.5320000
 178.2417434 125.7359092 134.4801368 179.1910187 125.3312055 135.9300437
 177.6369712 124.5181444 135.6283682 178.1930000 127.7670000 136.1760000
 179.0835824 127.6486408 136.5143111 175.1770000 125.5260000 136.0550000
 175.2010000 124.9870000 137.1630000 174.3960000 125.1120000 135.0700000
 174.4756875 125.5367827 134.1571425 173.3910000 124.0850000 135.2650000
 173.3623313 123.7959945 136.3155965 172.0100000 124.5920000 134.8610000
 171.7249428 125.3992137 135.5357204 172.0561842 124.9715814 133.8402723
 170.9600000 123.5170000 134.9270000 170.9850000 122.6660000 135.8080000
 170.0290000 123.5440000 133.9900000 169.2995725 122.8454117 133.9868913
 170.0510018 124.2631056 133.2811249 173.7500000 122.8540000 134.4550000
 174.2350000 122.9630000 133.3280000 173.5110000 121.6830000 135.0370000
 173.1860517 121.6760508 135.9932738 173.7370000 120.4050000 134.3750000
 173.7795458 120.5346633 133.2935766 175.0270000 119.7210000 134.8370000
 175.0111006 119.6210171 135.9222879 175.1420000 118.3500000 134.2060000
 175.1584271 118.4492097 133.1206482 176.0624497 117.8715247 134.5405658
 174.2880535 117.7405598 134.5017360 176.2330000 120.5640000 134.4930000
 176.1526196 121.5325720 134.9864667 177.1381336 120.0589648 134.8303013
 176.2794063 120.7094123 133.4137398 172.5250000 119.5330000 134.6700000
 172.3910000 118.9990000 135.7740000 171.6430000 119.3790000 133.6880000
 171.7506352 119.8756083 132.8151345 170.5060000 118.4980000 133.8400000
 170.0365131 118.4173632 132.8596027 170.8985224 117.5249923 134.1354345
 169.4690000 118.9360000 134.8470000 168.6050000 118.1340000 135.2080000
 169.5190000 120.1800000 135.3090000 170.2156005 120.8312522 134.9762575
 168.5740000 120.6360000 136.3040000 167.9034131 119.8080383 136.5339821
 169.1341009 120.9084667 137.1985100 167.7540000 121.8230000 135.8570000
 167.8190000 122.2290000 134.6960000 166.9810000 122.3920000 136.7770000
 166.9913173 122.0113546 137.7124688 166.0930000 123.5110000 136.4970000
 166.2071703 123.8444676 135.4655623 164.6360000 123.1180000 136.7240000
 164.5039249 122.7904125 137.7551850 163.9931770 123.9768533 136.5309979
 164.3687373 122.3056295 136.0481864 166.4790000 124.6740000 137.3930000
 166.5200000 124.5270000 138.6150000 166.7640000 125.8210000 136.7910000
 166.7286193 125.8719607 135.7829075 167.1760000 127.0070000 137.5280000
 166.9702524 126.8856442 138.5915036 168.6750000 127.3050000 137.3480000
 168.8951382 127.3988284 136.2845929 169.0390000 128.5850000 138.0500000
 168.8195601 128.4917664 139.1136045 170.1020632 128.7844214 137.9149880
 168.4594548 129.4074484 137.6307057 169.5040000 126.1680000 137.8850000
 169.2572076 125.2523146 137.3476771 170.5618395 126.3937510 137.7504204
 169.2937654 126.0338947 138.9460928 166.3410000 128.1870000 137.0590000
 166.1720000 128.3920000 135.8540000 165.8110000 128.9500000 138.0110000
 165.8840594 128.6383917 138.9689467 165.1050000 130.1940000 137.7420000
 165.2437798 130.5082481 136.7075497 163.5960000 130.0760000 138.0220000
 163.4376036 129.9769565 139.0958716 162.8790000 131.3020000 137.5200000
 163.0365614 131.4014629 136.4460435 161.8121857 131.2082967 137.7230454
 163.2687016 132.1846278 138.0271513 163.0270000 128.8320000 137.3860000
 163.5285049 127.9536483 137.7923167 161.9595325 128.7707363 137.5978007
 163.1812570 128.8714984 136.3076932 165.7200000 131.2700000 138.6170000
 165.7800000 131.1150000 139.8390000 166.1910000 132.3500000 138.0020000
 166.1505676 132.4189583 136.9951687 166.8150000 133.4350000 138.7430000
 166.5791359 133.3360774 139.8025667 168.3410000 133.4440000 138.5790000
 168.7595968 134.1872607 139.2575576 168.9340000 132.0850000 138.8910000
 168.5161973 131.3412462 138.2124937 170.0161508 132.1228317 138.7660299
 168.6968432 131.8119063 139.9192398 168.6770000 133.8040000 137.2360000
 169.6317011 133.8090817 137.1354003 166.2300000 134.7530000 138.2680000
 165.3320000 134.7920000 137.4270000 166.7500000 135.8400000 138.8150000
 167.4611283 135.7586843 139.5275894 166.3250000 137.1650000 138.4180000
 167.1523198 137.8536867 138.5893239 166.0864376 137.1418728 137.3546786
 165.1120000 137.6510000 139.1850000 164.8420000 137.2530000 140.3190000
 164.3650000 138.5330000 138.5340000 164.6660384 138.8541327 137.6249626
 163.1490000 139.1010000 139.0990000 163.1138664 138.9231873 140.1738244
 163.0810000 140.6120000 138.8500000 163.1829926 140.8050989 137.7821004
 161.7680000 141.1520000 139.3320000 161.6654821 140.9596733 140.3999894
 161.7279663 142.2261724 139.1513027 160.9546305 140.6632949 138.7956241
 164.2090000 141.3050000 139.5710000 165.1627362 140.9243237 139.2055210
 164.1526942 142.3781181 139.3883889 164.1283491 141.1143520 140.6411634
 161.9580000 138.3850000 138.4820000 161.6170000 138.6140000 137.3200000
 161.3280000 137.5120000 139.2590000 161.6287718 137.4131240 140.2180929
 160.2520000 136.6570000 138.7820000 160.1413814 136.7461384 137.7012979
 160.5340000 135.1950000 139.1250000 160.6630467 135.1103611 140.2040197
 159.4050000 134.3010000 138.6830000 159.2756471 134.3847549 137.6039483
 159.6365041 133.2677236 138.9415439 158.4847642 134.6027231 139.1832299
 161.7460000 134.7870000 138.4850000 161.9268781 133.8685812 138.6980500
 158.9300000 137.0940000 139.3890000 158.8120000 137.2010000 140.6140000
 157.9440000 137.3510000 138.5320000 158.1740977 137.4319611 137.5518981
 156.5590000 137.5580000 138.9360000 156.4266765 137.3974322 140.0059568
 156.0880000 138.9660000 138.5930000 156.2057922 139.1385692 137.5232127
 155.0379872 139.0746870 138.8645889 156.6828263 139.6933454 139.1454940
 155.7230000 136.5090000 138.2220000 155.4180000 136.6580000 137.0370000
 155.3540000 135.4520000 138.9330000 155.5577539 135.4318455 139.9220286
 154.7030000 134.2940000 138.3390000 154.5364677 134.4414355 137.2719344
 155.5350000 133.0190000 138.5340000 155.7394820 132.8841669 139.5961235
 154.7830000 131.8250000 138.0130000 154.5785454 131.9589035 136.9507528
 155.3827659 130.9262391 138.1565622 153.8419781 131.7234020 138.5536083
 156.8550000 133.1590000 137.8390000 157.3969615 134.0083080 138.2549995
 157.4396647 132.2502491 137.9819635 156.6900024 133.3204374 136.7737232
 153.3290000 134.1250000 138.9590000 153.2000000 134.0860000 140.1840000
 152.3110000 134.0110000 138.1160000 152.4771051 134.1544545 137.1301353
 150.9530000 133.7230000 138.5520000 150.9198240 133.5445518 139.6267813
 150.0110000 134.8760000 138.2200000 150.0263989 135.0606751 137.1458687
 148.9979759 134.6188446 138.5294407 150.3345680 135.7735208 138.7471237
 150.5000000 132.4480000 137.8700000 150.4090000 132.4010000 136.6430000
 150.2210000 131.4210000 138.6550000 150.2572624 131.5322163 139.6582025
 149.8810000 130.1150000 138.1190000 149.8584195 130.1657828 137.0304182
 150.8940000 129.0670000 138.5340000 150.9794673 129.1184780 139.6194237
 150.4854784 128.0978288 138.2477879 152.2400000 129.2380000 137.9220000
 152.1194605 129.5172737 136.8753017 152.7833070 130.0237458 138.4469029
 153.0410000 127.9740000 137.9910000 154.0250000 127.8130000 137.2810000
 152.6190000 127.0590000 138.8450000 153.1200461 126.1865910 138.9342006
 151.7972194 127.2359748 139.4048731 148.5100000 129.6820000 138.5970000
 148.1220000 129.9540000 139.7330000 147.7910000 128.9870000 137.7270000
 148.1144674 128.9143131 136.7729639 146.5240000 128.3570000 138.0770000
 146.4714036 128.2292316 139.1582068 145.3400000 129.2010000 137.6290000
 145.2977294 130.0627942 138.2950505 145.5581674 129.5364210 136.6150987
 144.0090000 128.4850000 137.6470000 143.3066666 129.0602715 137.0437660
 144.1481048 127.5000495 137.2013271 143.4680000 128.3330000 139.0310000
 144.2907354 128.0782509 139.6990632 143.0313214 129.2829998 139.3390772
 142.4140000 127.2500000 139.0940000 142.8624386 126.3179140 138.7501700
 142.1000088 127.1403124 140.1320161 141.2360000 127.5710000 138.2530000
 141.5266668 127.6722558 137.2910438 140.5588005 126.8249761 138.3233507
 140.8200654 128.4344374 138.5717056 146.5350000 126.9900000 137.4080000
 146.2080000 126.8690000 136.2280000 146.9460000 125.9750000 138.1500000
 147.2414604 126.1556068 139.0987801 147.0200000 124.6110000 137.6530000
 146.9554789 124.6159062 136.5649227 148.3340000 123.9480000 138.0610000
 148.2760642 123.6610243 139.1109470 148.5890000 122.7250000 137.2200000
 148.6475284 123.0112688 136.1698932 149.5291175 122.2643291 137.5234146
 147.7751764 122.0129703 137.3571329 149.4090000 124.8720000 137.8780000
 150.2354699 124.4561776 138.1342023 145.8440000 123.8300000 138.2080000
 145.5630000 123.9020000 139.4050000 145.1610000 123.0810000 137.3510000
 145.4164898 123.0107788 136.3763753 143.9460000 122.4160000 137.7950000
 143.5931538 122.8556545 138.7279002 142.8300000 122.5280000 136.7470000
 143.2449697 122.3260274 135.7595252 141.7360000 121.5340000 137.0450000
 141.3201993 121.7356395 138.0321941 140.9498355 121.6225114 136.2951923
 142.1460171 120.5242880 137.0233380 142.2720000 123.9280000 136.7510000
 143.0652053 124.6365188 136.5124029 141.4797512 124.0060476 136.0064531
 141.8669041 124.1554105 137.7370439 144.2240000 120.9640000 138.1540000
 144.0090000 120.5530000 139.2990000 144.7050000 120.1710000 137.2100000
 144.8899824 120.4992610 136.2729164 144.8790000 118.7510000 137.4920000
 144.7919850 118.5758552 138.5643115 143.8180000 117.9270000 136.7770000
 142.8968220 118.5096424 136.7693693 144.1563925 117.7698488 135.7528447
 143.5620000 116.5870000 137.4350000 144.3540141 115.9092374 137.1164842
 143.6112439 116.7201507 138.5157151 142.2180000 116.0030000 137.0600000
 141.3510000 116.7680000 136.5900000 142.0210000 114.7840000 137.2430000
 146.2840000 118.3010000 137.1330000 146.4970000 117.2930000 136.4590000
 147.2710000 119.0590000 137.5920000 147.0634814 119.9113537 138.0925283
 148.6590000 118.6990000 137.3960000 148.7912600 117.6279244 137.5489818
 148.9732823 118.9628003 136.3861805 149.5170000 119.4470000 138.3890000
 149.0290000 120.2510000 139.1840000 150.8120000 119.1700000 138.3380000
 151.1679283 118.4740830 137.6983799 151.7500000 119.8280000 139.2320000
 151.3277294 119.8643461 140.2362239 153.0690000 119.0620000 139.2850000
 153.5085604 119.0249745 138.2882474 153.7552520 119.5658255 139.9656749
 152.8865392 118.0473553 139.6389823 152.0000000 121.2600000 138.7850000
 152.0960000 121.5470000 137.5920000 152.0900000 122.1600000 139.7510000
 151.9044384 121.9058307 140.7107209 152.4550000 123.5280000 139.4630000
 152.5731493 123.6518215 138.3865205 151.6704369 124.1946610 139.8209431
 153.7530000 123.8870000 140.1440000 153.8470000 123.8340000 141.3720000
 154.7650000 124.2460000 139.3650000 154.6295849 124.3217028 138.3669864
 156.0890000 124.5020000 139.9010000 156.0230633 124.6546089 140.9782474
 157.0260000 123.3260000 139.6310000 157.1016165 123.1747853 138.5541920
 158.0111926 123.5596083 140.0346370 156.5360000 122.1490000 140.2380000
 157.1366977 121.4221461 140.0578736 156.6440000 125.7680000 139.2770000
 156.0940000 126.3050000 138.3170000 157.7440000 126.2510000 139.8370000
 158.0278869 125.9513985 140.7588170 158.5380000 127.2700000 139.1680000
 157.9351419 127.7480172 138.3958855 159.0460000 128.3330000 140.1510000
 159.6453139 127.8455936 140.9199982 159.8830000 129.3560000 139.4380000
 159.2841920 129.8441907 138.6691050 160.2337171 130.1009852 140.1522096
 160.7394372 128.8663600 138.9744624 157.8670000 129.0160000 140.8280000
 157.3423602 128.2598835 141.4120733 158.2697139 129.7764338 141.4970750
 156.9150000 129.6520000 139.8670000 156.5114914 128.8920555 139.1978476
 156.0994670 130.1197780 140.4185332 157.4388462 130.4086047 139.2828473
 159.6830000 126.5560000 138.4660000 159.7880000 126.5820000 137.2380000
 160.5250000 125.8860000 139.2370000 160.4477825 125.9836368 140.2392993
 161.5850000 125.0440000 138.7060000 161.6056074 125.0823265 137.6168693
 162.9470000 125.4820000 139.2350000 162.9449077 125.4401510 140.3241943
 163.7187945 124.8167637 138.8478384 163.1519462 126.5025184 138.9115213
 161.2860000 123.6070000 139.0980000 161.1710000 123.2980000 140.2840000
 161.1450000 122.7370000 138.1080000 161.2217842 123.0535415 137.1519639
 160.8360000 121.3350000 138.3480000 160.9454440 121.1040912 139.4076237
 159.4070000 121.0030000 137.9210000 159.2845070 121.2203851 136.8599443
 159.2100884 119.9459633 138.0998840 158.7055348 121.6054729 138.4981241
 161.8310000 120.4740000 137.5920000 161.7340000 120.3360000 136.3700000
 162.7780000 119.8910000 138.3160000 162.8353837 120.0977268 139.3029501
 163.7670000 118.9930000 137.7410000 163.6876847 118.9855571 136.6539154
 165.1840000 119.4140000 138.1240000 165.2816646 119.4173998 139.2096105
 165.9000813 118.7115600 137.6974959 165.3831532 120.4139793 137.7386706
 163.4810000 117.5840000 138.2250000 163.9250000 117.1960000 139.3060000
 162.7370000 116.8250000 137.4340000 162.2710528 117.2469925 136.6434844
 162.4860000 115.4160000 137.7130000 162.8396040 115.1264937 138.7025704
 160.9960000 115.0820000 137.6090000 160.4505242 115.7860682 138.2373664
 160.4850000 115.1650000 136.2110000 161.0297204 114.4608331 135.5820896
 159.4233635 114.9183943 136.1964136 160.6277626 116.1765461 135.8308764
 160.7550000 113.7780000 138.1510000 159.8198318 113.5715758 138.0842937
 163.3260000 114.5510000 136.7840000 163.5080000 114.8810000 135.6110000
 163.8760000 113.4650000 137.3230000 163.7318505 113.2691101 138.3032792
 164.6830000 112.5420000 136.5490000 164.5987584 112.7844313 135.4896466
 165.7252802 112.6221154 136.8577602 164.2120000 111.1190000 136.7680000
 163.8130000 110.7480000 137.8740000 164.2560000 110.3270000 135.7030000
 164.5581628 110.6875293 134.8092352 163.8230000 108.9360000 135.7770000
 163.2407870 108.7794925 136.6850929 162.9540000 108.5780000 134.5720000
 163.4235017 108.9182603 133.6490210 162.8131685 107.4979272 134.5306568
 161.5850000 109.1880000 134.6070000 161.4070000 110.5340000 134.3500000
 162.2775214 111.1502661 134.1252593 160.1490000 111.1000000 134.3750000
 160.0238028 112.1637216 134.1727065 159.0510000 110.3190000 134.6560000
 158.0554203 110.7622627 134.6769545 159.2120000 108.9750000 134.9110000
 158.3437135 108.3544314 135.1325248 160.4730000 108.4140000 134.8860000
 160.6004005 107.3503734 135.0874135 165.0210000 107.9970000 135.8540000
 164.9300000 106.8310000 135.4730000 166.1001072 108.3967029 136.2855146
 138.7890000 181.1660000 144.3800000 138.3411931 181.2082545 145.2843144
 138.3846930 181.8742395 143.7841535 139.7893583 181.1300563 144.5145021
 138.4380000 179.8950000 143.7600000 137.9172540 180.0769622 142.8198870
 139.6920000 179.0670000 143.4720000 140.4589633 179.4109339 144.1659568
 139.4393094 178.0304390 143.6951338 140.2150000 179.1650000 142.0520000
 139.6259967 178.5057291 141.4143969 140.1072255 180.1937086 141.7081319
 141.6800000 178.7590000 141.9850000 142.2898170 179.6366737 142.1992688
 141.8605159 177.9977131 142.7439175 142.0480000 178.2090000 140.6200000
 141.7858532 178.9375298 139.8527817 143.1198929 178.0143785 140.5844008
 141.3020000 176.9360000 140.3740000 140.3087383 177.1162044 140.4065178
 141.5484945 176.5716629 139.4648251 141.5450941 176.2606492 141.0845671
 137.4930000 179.0600000 144.6040000 136.9850000 179.5040000 145.6340000
 137.2850000 177.8310000 144.1430000 137.7204192 177.5812162 143.2665769
 136.4450000 176.8430000 144.8020000 136.6981030 176.7721636 145.8598375
 134.9660000 177.2110000 144.6770000 134.7347568 177.3791485 143.6251669
 134.0870000 176.1080000 145.2150000 134.3173586 175.9395852 146.2669843
 133.0403078 176.3950160 145.1142213 134.2677269 175.1918135 144.6528250
 134.7190000 178.4230000 145.4000000 133.7911994 178.6575312 145.3239645
 136.7140000 175.4860000 144.1730000 136.8030000 175.3750000 142.9490000
 136.8660000 174.4650000 145.0050000 136.9069658 174.6462663 145.9977556
 137.0140000 173.0920000 144.5480000 136.8065721 173.0415521 143.4791090
 138.4280000 172.5760000 144.7950000 138.6405150 172.7173826 145.8546922
 138.4255421 171.5106668 144.5644371 139.4880000 173.2650000 143.9740000
 139.0914960 173.4560541 142.9768121 139.7421085 174.2116199 144.4509085
 140.7280000 172.4060000 143.8670000 141.0939307 172.1937304 144.8715573
 140.4641629 171.4714311 143.3719541 141.8100000 173.1090000 143.0740000
 141.3927576 173.3932409 142.1079687 142.1034818 174.0053604 143.6203568
 143.0010000 172.2450000 142.8640000 142.7293495 171.4145577 142.3573725
 143.6949066 172.7514971 142.3329122 143.3880313 171.9818540 143.7590196
 135.9970000 172.2340000 145.2800000 135.8630000 172.3370000 146.5020000
 135.2830000 171.3960000 144.5420000 135.4201533 171.3650462 143.5418349
 134.2670000 170.5360000 145.1250000 134.5042302 170.3539111 146.1731721
 132.8820000 171.1790000 145.0420000 133.0125482 172.2473060 145.2145652
 132.5126484 171.0175401 144.0292759 131.8810000 170.6240000 146.0400000
 132.3882672 170.4374011 146.9865525 131.0973842 171.3669423 146.1886108
 131.2420000 169.3340000 145.5710000 130.6590000 169.2740000 144.4920000
 131.3570000 168.2900000 146.3780000 130.9493234 167.4043772 146.1142321
 131.8518382 168.3843583 147.2534045 134.2710000 169.2040000 144.4030000
 133.9190000 169.1370000 143.2240000 134.6510000 168.1510000 145.1090000
 134.9267362 168.2429630 146.0762702 134.6810000 166.8360000 144.5100000
 134.8573549 166.1015038 145.2958202 133.7136778 166.6450256 144.0453325
 135.7640000 166.7060000 143.4630000 135.5020000 166.2910000 142.3320000
 136.9910000 167.0530000 143.8320000 137.1436281 167.3597224 144.7821186
 138.1200000 167.0590000 142.9160000 137.8077007 166.7884386 141.9073549
 138.7980000 168.4360000 142.8670000 139.0484936 168.7429667 143.8824426
 140.0570000 168.3800000 142.0330000 139.8072310 168.0735301 141.0172281
 140.5226988 169.3652520 142.0105574 140.7504473 167.6607664 142.4688160
 137.8450000 169.4600000 142.3100000 136.9613082 169.5182298 142.9454527
 138.3343261 170.4334959 142.2789293 137.5484739 169.1706332 141.3018135
 139.0960000 165.9850000 143.3660000 139.3740000 165.8540000 144.5630000
 139.6000000 165.2110000 142.4140000 139.1987928 165.2584823 141.4883232
 140.6790000 164.2620000 142.6510000 140.9388946 164.2321093 143.7091401
 140.2860000 162.8550000 142.2050000 140.0317431 162.8669891 141.1451369
 141.1212390 162.1743899 142.3700633 139.4241655 162.5181278 142.7810709
 141.9110000 164.7460000 141.8990000 141.9350000 164.7260000 140.6660000
 142.9190000 165.1950000 142.6410000 142.8296363 165.1764026 143.6468666
 144.1370000 165.7500000 142.0660000 144.0658236 165.7411991 140.9783623
 144.3490000 167.1910000 142.5300000 143.4441033 167.7387903 142.2669657
 144.4500136 167.1568099 143.6147706 145.5610000 167.8940000 141.9290000
 146.4387602 167.3258970 142.2370534 145.4686424 167.8588038 140.8434907
 145.7100000 169.3420000 142.3790000 144.8850000 169.8060000 143.1990000
 146.6430000 170.0200000 141.9000000 145.3060000 164.8730000 142.4800000
 145.4990000 164.6180000 143.6700000 146.0740000 164.4040000 141.5030000
 145.8040404 164.5862129 140.5469563 147.2640000 163.6000000 141.7430000
 147.5591634 163.6710219 142.7898685 147.0200000 162.1300000 141.4030000
 146.7324229 162.0417437 140.3553310 147.9322916 161.5597669 141.5780955
 146.2210268 161.7386537 142.0327532 148.4070000 164.1590000 140.9120000
 148.2390000 164.4230000 139.7190000 149.5580000 164.3590000 141.5460000
 149.6201405 164.1399200 142.5299928 150.7290000 164.9250000 140.8890000
 150.6133712 164.8761444 139.8062524 150.9400000 166.3830000 141.2920000
 151.0664980 166.4471208 142.3727344 151.8309649 166.7715498 140.7987345
 150.0733358 166.9723407 140.9925505 151.9430000 164.0900000 141.2520000
 152.1880000 163.8260000 142.4320000 152.6930000 163.6780000 140.2490000
 152.4605576 163.9408157 139.3019003 153.8630000 162.8440000 140.4650000
 154.1621710 162.9103509 141.5110370 153.6157898 161.8103059 140.2232089
 155.0160000 163.2910000 139.5940000 154.8300000 163.6330000 138.4310000
 156.2090000 163.2860000 140.1770000 156.2914963 162.9900094 141.1391244
 157.4110000 163.7300000 139.4860000 157.2514308 163.6803618 138.4088868
 157.7600000 165.1690000 139.8620000 156.9096333 165.7914802 139.5836223
 157.8921094 165.1978545 140.9435797 159.0030000 165.6890000 139.1910000
 159.7735212 164.9195987 139.2401890 158.7717520 165.9047203 138.1478839
 159.5030000 166.9470000 139.8670000 158.6832720 167.6625080 139.9317559
 159.8455761 166.6959155 140.8708414 160.6470000 167.5590000 139.0810000
 160.2355262 168.1495692 138.2624538 161.2218258 168.2069664 139.7426752
 161.5340000 166.5010000 138.5310000 161.0016436 165.9007265 137.9175115
 162.2874135 166.9293674 138.0123773 161.9157219 165.9539192 139.2893469
 158.5480000 162.7940000 139.8490000 158.7450000 162.4840000 141.0250000
 159.2860000 162.3410000 138.8450000 159.0198663 162.5576554 137.8950881
 160.4490000 161.4970000 139.0590000 160.8539047 161.6958455 140.0512761
 160.1060000 160.0020000 138.9590000 159.3269122 159.7721458 139.6858352
 159.6220000 159.6510000 137.5770000 160.4007803 159.8801604 136.8496167
 159.3861645 158.5877207 137.5332052 158.7282010 160.2306791 137.3463574
 161.2700000 159.2210000 139.2480000 161.0530817 158.2879616 139.1848650
 161.5220000 161.8500000 138.0440000 161.3470000 162.7320000 137.2010000
 162.6450000 161.1440000 138.1400000 162.7627394 160.5035304 138.9120333
 163.7460000 161.3060000 137.2050000 163.4854307 162.0430704 136.4454409
 164.9970000 161.7880000 137.9460000 164.6636759 162.4743836 138.7243777
 165.4541378 160.9119998 138.4061616 166.0160000 162.4840000 137.0600000
 166.2562548 161.8238542 136.2265818 165.5706513 163.4027664 136.6783787
 167.2870000 162.8170000 137.8250000 167.0183580 163.3924366 138.7108912
 167.7637992 161.8850067 138.1285630 168.2510000 163.6240000 136.9700000
 169.2431901 163.5500304 137.4151830 168.2676205 163.1862628 135.9718972
 167.8550000 165.0550000 136.8770000 167.8399557 165.4609183 137.8017182
 168.5203945 165.5517517 136.3020322 166.9358188 165.1237869 136.4641159
 164.0460000 160.0210000 136.4470000 164.3710000 160.0640000 135.2610000
 163.9320000 158.8750000 137.1080000 163.6243999 158.8821517 138.0699929
 164.2470000 157.5940000 136.4940000 164.0872222 157.6577308 135.4176596
 165.7000000 157.2040000 136.7490000 165.8501502 157.2365747 137.8281168
 165.8174420 156.1790653 136.3971245 166.7130000 158.0820000 136.0770000
 166.5787815 158.0257967 134.9967559 166.5282857 159.1023502 136.4129542
 168.1280000 157.6840000 136.4300000 168.3060000 156.8480000 137.3430000
 169.0610000 158.1920000 135.7730000 163.3380000 156.5260000 137.0700000
 163.0250000 156.5550000 138.2610000 162.9360000 155.5780000 136.2390000
 163.1539507 155.6086951 135.2532746 162.1650000 154.4630000 136.7350000
 162.6547183 153.5434751 136.4144549 162.1614108 154.5115734 137.8239110
 160.7400000 154.4590000 136.2390000 160.4640000 154.8620000 135.1100000
 159.8220000 154.0180000 137.0870000 160.1088942 153.7498729 138.0175369
 158.4250000 153.8470000 136.7200000 158.2618524 154.1315184 135.6805139
 157.9730000 152.3930000 136.9070000 158.0959858 152.1171396 137.9543179
 156.5310000 152.2300000 136.5120000 156.4073041 152.5052520 135.4646048
 156.2304763 151.1916692 136.6521969 155.9086507 152.8747800 137.1325173
 158.8430000 151.4850000 136.0800000 159.8805206 151.5858371 136.3985669
 158.5212638 150.4521410 136.2133706 158.7581771 151.7585061 135.0282870
 157.5900000 154.7990000 137.5620000 157.7850000 154.8950000 138.7770000
 156.6760000 155.5110000 136.9140000 156.5889526 155.3953529 135.9144262
 155.8200000 156.4830000 137.5720000 155.8900880 156.3603374 138.6528056
 156.2390000 157.9040000 137.2150000 157.1936435 158.0265643 137.7265985
 156.4014891 157.9106420 136.1371998 155.3090000 159.0490000 137.5950000
 154.4259602 159.0026376 136.9576679 154.8930000 158.9650000 139.0300000
 155.7755296 159.0117680 139.6680072 154.2301579 159.7974917 139.2660058
 154.3698696 158.0244669 139.2027207 156.0010000 160.3590000 137.3400000
 156.2587944 160.4347398 136.2836360 155.3372647 161.1799617 137.6112537
 156.9093959 160.4134765 137.9399569 154.3790000 156.2330000 137.1630000
 154.0780000 156.1220000 135.9740000 153.4980000 156.1410000 138.1510000
 153.8349634 156.1928462 139.1017192 152.0740000 155.9300000 137.9340000
 151.8560201 155.9634008 136.8665412 151.6410000 154.5710000 138.4780000
 152.3467994 153.8354090 138.0921861 151.7194561 154.6141296 139.5643170
 150.2460000 154.1750000 138.0930000 149.1480000 154.7530000 138.7030000
 149.3129203 155.5044763 139.4751296 147.8750000 154.3990000 138.3550000
 147.0176753 154.8677941 138.8380406 147.6810000 153.4470000 137.3880000
 146.4030000 153.0850000 137.0380000 145.7302020 153.5597348 137.5315274
 148.7540000 152.8530000 136.7700000 148.5992448 152.0952247 136.0019323
 150.0260000 153.2190000 137.1250000 150.8829884 152.7520802 136.6395549
 151.3110000 157.0530000 138.6150000 151.4690000 157.2690000 139.8190000
 150.4850000 157.7620000 137.8530000 150.4327080 157.5514179 136.8665822
 149.6770000 158.8600000 138.3690000 149.7007386 158.8689675 139.4587042
 150.1620000 160.2250000 137.8560000 150.0787398 160.2468410 136.7694044
 149.3320000 161.3280000 138.4430000 149.4151284 161.3070875 139.5296247
 149.6874999 162.2886511 138.0703477 148.2893876 161.1909007 138.1561814
 151.6100000 160.4350000 138.2040000 152.2119447 159.6506440 137.7451424
 151.9361835 161.4066031 137.8329321 151.7328063 160.4001639 139.2864998
 148.2360000 158.6170000 137.9520000 147.9480000 158.4950000 136.7590000
 147.3320000 158.5550000 138.9250000 147.5961352 158.6877086 139.8907745
 145.9370000 158.2940000 138.6230000 145.7863036 158.5626308 137.5774249
 145.7837161 157.2220871 138.7479242 144.9280000 159.0390000 139.4740000
 145.0680000 159.1100000 140.6960000 143.9010000 159.5930000 138.8360000
 143.8910468 159.5574564 137.8266750 142.8070000 160.2720000 139.5130000
 142.9531351 160.2071266 140.5912092 142.7380000 161.7370000 139.1200000
 142.5548133 161.8036065 138.0475703 141.9143111 162.2056032 139.6585607
 143.9420000 162.4010000 139.4330000 143.8747834 163.3235349 139.1760739
 141.4900000 159.5930000 139.1710000 141.2780000 159.1720000 138.0340000
 140.6050000 159.4940000 140.1590000 140.8509977 159.8369601 141.0765853
 139.2970000 158.8820000 139.9790000 139.0274885 158.9110049 138.9232437
 139.2920000 157.4310000 140.4430000 139.9204754 157.3819157 141.3322180
 138.2636856 157.1891958 140.7117011 139.7860000 156.4490000 139.4290000
 139.1158205 156.4439108 138.5693871 140.7881474 156.7310013 139.1060791
 139.8250000 155.0740000 140.0430000 140.4861987 155.1049383 140.9090012
 138.8165685 154.8149021 140.3655425 140.3220000 154.0380000 139.0690000
 139.7081984 154.0722282 138.1689019 141.3574248 154.2600040 138.8107192
 140.2420000 152.6830000 139.6710000 139.2825700 152.4769185 139.9100067
 140.5779831 151.9995234 139.0076184 140.8110337 152.6509453 140.5048299
 138.2510000 159.6620000 140.7570000 138.5040000 160.1060000 141.8770000
 137.0740000 159.8140000 140.1620000 136.9530427 159.4623373 139.2229569
 135.9570000 160.5010000 140.7900000 136.1078149 160.5291252 141.8691492
 135.8280000 161.9360000 140.2770000 135.6773171 161.9121327 139.1977293
 134.6620000 162.6350000 140.9320000 134.8122029 162.6596695 142.0113193
 134.5888860 163.6541727 140.5524733 133.7414912 162.0967735 140.7059992
 137.0250000 162.6580000 140.5720000 136.9431584 163.5585587 140.2496704
 134.6770000 159.7300000 140.5140000 134.4480000 159.2840000 139.3900000
 133.8570000 159.5590000 141.5460000 134.1657036 159.8420012 142.4650820
 132.5390000 158.9480000 141.4170000 132.2879445 158.8497009 140.3608714
 132.5030000 157.5650000 142.0570000 132.8666480 157.6730015 143.0788586
 131.4612294 157.2448353 142.0745644 133.3260000 156.5430000 141.3410000
 133.1667060 156.6460668 140.2676392 134.3786480 156.7101207 141.5692652
 132.9340000 155.1610000 141.7740000 132.9118863 155.1286447 142.8632948
 131.9401574 154.9408625 141.3842362 133.9110000 154.1380000 141.2620000
 134.2579683 154.4450933 140.2753860 134.7587539 154.0875975 141.9452804
 133.2750000 152.8080000 141.1680000 132.4896877 152.8543852 140.5345706
 133.9466955 152.1372675 140.8229737 132.9538021 152.5230670 142.0821905
 131.5220000 159.8620000 142.0760000 131.6290000 160.1500000 143.2690000
 130.5410000 160.3180000 141.3020000 130.5037381 160.0330117 140.3337580
 129.5270000 161.2440000 141.7890000 129.5541851 161.2718421 142.8783048
 129.7670000 162.6520000 141.2600000 130.1971080 162.5564565 140.2630156
 128.7967059 163.1437927 141.1909406 130.6780000 163.4670000 142.1190000
 130.1328891 163.7646444 143.0147471 131.5236998 162.8396406 142.4006225
 131.1790000 164.6930000 141.4070000 131.7220000 164.5430000 140.2950000
 131.0260000 165.8040000 141.9520000 128.1610000 160.7530000 141.3550000
 127.8460000 160.7730000 140.1650000 127.3470000 160.3370000 142.3160000
 127.6342487 160.3704621 143.2837127 126.0290000 159.8250000 142.0090000
 125.4972973 159.6463162 142.9435927 125.4922049 160.5711162 141.4231152
 126.0910000 158.5380000 141.2260000 125.5730000 158.4620000 140.1150000
 126.7190000 157.5190000 141.7950000 127.0634177 157.6264487 142.7383613
 126.9770000 156.2660000 141.1060000 126.4983008 156.2431848 140.1270078
 128.4850000 156.0320000 140.9210000 128.9913991 156.2294402 141.8658156
 128.7540000 154.6150000 140.4950000 128.2482682 154.4169411 139.5499556
 129.8270402 154.4702439 140.3695776 128.3819329 153.9293374 141.2562716
 129.0410000 156.9970000 139.9160000 128.8790887 158.0174698 140.2631716
 130.1097092 156.8203543 139.7945234 128.5387659 156.8553491 138.9590273
 126.3510000 155.1360000 141.9020000 126.5350000 155.0550000 143.1180000
 125.6060000 154.2740000 141.2230000 125.3092340 154.5144207 140.2879988
 125.1580000 153.0090000 141.7850000 125.3397455 153.0063990 142.8597376
 123.6650000 152.7610000 141.5400000 123.4508400 152.8687884 140.4766955
 123.3000000 151.3730000 141.9860000 123.5134618 151.2645897 143.0493824
 122.2380670 151.2016696 141.8098052 123.8833739 150.6446337 141.4227424
 122.8530000 153.7570000 142.2960000 123.1089019 154.7629064 141.9631809
 121.7935360 153.5740416 142.1166626 123.0620802 153.6632496 143.3616440
 126.0010000 151.9200000 141.1540000 126.0320000 151.7820000 139.9290000
 126.6930000 151.1540000 141.9830000 126.5679755 151.2582913 142.9797906
 127.6650000 150.1860000 141.5090000 127.5314215 150.0210539 140.4398654
 129.0860000 150.6940000 141.7510000 129.2749761 151.5752873 141.1380399
 129.2202350 150.9478253 142.8025007 130.1490000 149.7020000 141.4120000
 130.8330000 149.7230000 140.2180000 131.7060000 148.7330000 140.1950000
 132.3487909 148.5788864 139.3283006 131.6130000 148.0710000 141.3320000
 132.1575759 147.2622188 141.5954577 130.6490000 148.6590000 142.1120000
 130.4261599 148.2554485 143.0997194 127.4420000 148.8650000 142.2200000
 127.4090000 148.8200000 143.4490000 127.2860000 147.7990000 141.4550000
 127.1904744 147.8846721 140.4531844 127.2480000 146.4770000 142.0360000
 127.3412124 145.7696353 141.2119576 128.1197340 146.3947074 142.6851588
 126.0080000 146.1430000 142.8330000 126.0700000 145.9990000 144.0530000
 124.8750000 146.0110000 142.1620000 124.8549101 146.2461995 141.1799730
 123.6360000 145.5870000 142.7950000 123.7482245 145.5680933 143.8790421
 122.4660000 146.5100000 142.4400000 122.3860581 146.5860884 141.3556020
 121.1800000 145.9560000 143.0010000 121.2590170 145.8800491 144.0854762
 120.3547354 146.6196612 142.7429445 120.9956689 144.9673998 142.5805320
 122.7200000 147.8910000 142.9790000 123.6361485 148.2890467 142.5427284
 121.8836508 148.5412308 142.7224468 122.8245413 147.8449640 144.0629985
 123.3720000 144.1610000 142.3480000 123.0910000 143.9150000 141.1720000
 123.4680000 143.2200000 143.2740000 123.6869265 143.4859969 144.2234294
 123.3120000 141.8070000 142.9730000 123.1300059 141.6718551 141.9068325
 124.5640000 141.0240000 143.3570000 124.7541246 141.1421521 144.4237674
 124.4169288 139.9682149 143.1294297 125.4166250 141.4014765 142.7925168
 122.1030000 141.2640000 143.7140000 121.9460000 141.5050000 144.9120000
 121.2570000 140.5280000 143.0050000 121.4684793 140.3000484 142.0440557
 120.0030000 140.0530000 143.5660000 120.0882629 140.0025876 144.6514898
 118.8480000 140.9930000 143.2090000 118.6174209 140.8872023 142.1489338
 117.6230000 140.6540000 144.0270000 117.8526874 140.7600263 145.0872366
 116.8102117 141.3303744 143.7624400 117.3214586 139.6267860 143.8220496
 119.2280000 142.3460000 143.4830000 118.5028502 142.9337223 143.2586331
 119.7120000 138.6640000 143.0390000 119.8220000 138.4210000 141.8370000
 119.3300000 137.7610000 143.9290000 119.3281300 137.9991911 144.9105095
 118.9550000 136.4090000 143.5470000 118.8028718 136.3506369 142.4692477
 120.0250000 135.3790000 143.9490000 120.3067736 135.5468918 144.9884783
 119.4900000 133.9740000 143.7930000 119.2084270 133.8051964 142.7536141
 120.2592359 133.2576346 144.0814393 118.6159722 133.8445177 144.4312879
 121.2440000 135.5580000 143.1030000 121.6408708 136.5632369 143.2447551
 121.9981967 134.8260665 143.3920681 120.9832260 135.4154319 142.0542998
 117.6260000 136.0740000 144.1960000 117.4500000 136.2710000 145.4000000
 116.6910000 135.5850000 143.3940000 116.8300250 135.6508677 142.3957852
 115.4600000 134.9850000 143.8800000 115.4323272 134.9565049 144.9692756
 114.2380000 135.7510000 143.3810000 114.2468421 135.7802276 142.2914278
 113.3312235 135.2522604 143.7232214 114.2619043 136.7683902 143.7714421
 115.4330000 133.5490000 143.3930000 115.4110000 133.3050000 142.1860000
 115.4520000 132.6030000 144.3190000 115.4872346 132.8555282 145.2962857
 115.4610000 131.1910000 143.9710000 115.3980697 131.0845751 142.8880352
 116.7360000 130.5100000 144.4540000 117.5874342 131.0263656 144.0106879
 116.7812805 130.6011706 145.5392362 116.7770000 129.0590000 144.0720000
 115.8033037 128.6234493 144.2963034 116.9586747 129.0079677 142.9984595
 117.8460000 128.2940000 144.7970000 118.5200000 128.8820000 145.6650000
 118.0070000 127.0960000 144.5000000 114.2490000 130.5060000 144.5800000
 114.0400000 130.5780000 145.7930000 113.4700000 129.8270000 143.7390000
 113.6579968 129.8961586 142.7490638 112.3060000 129.0560000 144.1710000
 111.7434142 128.7285765 143.2967059 112.7230000 127.8260000 144.9710000
 113.3254494 128.1711053 145.8112715 111.8137937 127.3556225 145.3454181
 113.5080000 126.8290000 144.1690000 112.8426063 126.3621100 143.4428005
 114.3071017 127.3529124 143.6445437 114.1020000 125.7700000 145.0580000
 114.8164405 126.2403550 145.7336034 113.3017660 125.3109205 145.6384920
 114.8030000 124.7110000 144.2430000 114.0490820 124.1263583 143.7158357
 115.4503929 125.2055521 143.5188454 115.6140000 123.8140000 145.0980000
 115.0142334 123.3553118 145.7688092 116.0678791 123.1195092 144.5219998
 116.3129352 124.3554843 145.5862451 111.3300000 129.9040000 144.9720000
 110.6650000 129.4160000 145.8800000 111.2470000 131.1800000 144.6380000
 111.8513549 131.5485590 143.9175704 110.3360000 132.0920000 145.3050000
 110.2569610 131.8584348 146.3667435 110.8470000 133.5230000 145.1570000
 111.1338482 133.6847013 144.1179278 109.7910000 134.5200000 145.5460000
 109.5039575 134.3592102 146.5851597 110.1839861 135.5300837 145.4302766
 108.9183842 134.3945401 144.9049836 111.9980000 133.7050000 145.9850000
 112.3197946 134.6047028 145.8923526 108.9360000 131.9610000 144.7210000
 108.7540000 132.0300000 143.5040000 107.9520000 131.7610000 145.5860000
 108.1765031 131.5276870 146.5426937 106.5520000 131.8290000 145.2040000
 106.4703178 131.6925549 144.1256633 105.7170000 130.7530000 145.8970000
 105.8871657 130.8611056 146.9681938 104.6725515 130.9688253 145.6719517
 106.0400000 129.3410000 145.4770000 105.1290818 128.7461255 145.5437320
 106.3854724 129.3608271 144.4433861 107.1040000 128.7290000 146.3500000
 107.9206787 129.4422622 146.4613185 106.6748395 128.5132297 147.3284497
 107.6310000 127.4520000 145.7390000 106.7920529 126.7704982 145.5982040
 108.0687962 127.6934547 144.7704272 108.6550000 126.8050000 146.5970000
 108.2494106 126.5807912 147.4944003 108.9796374 125.9578323 146.1531335
 109.4326665 127.4361672 146.7272377 106.0330000 133.2080000 145.5610000
 106.3030000 133.7130000 146.6510000 105.2990000 133.8180000 144.6440000
 105.0294730 133.3487144 143.7912248 104.8970000 135.2030000 144.8250000
 104.8339192 135.4377797 145.8875434 105.9180000 136.1300000 144.1820000
 106.8707493 135.6005665 144.1737417 105.5911064 136.3046870 143.1569512
 106.0820000 137.4360000 144.8800000 106.0084458 137.2613051 145.9533929
 107.0702323 137.8304040 144.6434803 105.0380000 138.4240000 144.4630000
 104.4830000 138.2610000 143.3590000 104.7720000 139.3640000 145.2360000
 103.5210000 135.3960000 144.2140000 103.3170000 135.0800000 143.0410000
 102.5830000 135.9020000 145.0060000 102.8289240 136.1664994 145.9492183
 101.2020000 136.0660000 144.5820000 101.1358445 135.9461907 143.5006266
 100.3020000 135.0310000 145.2420000 100.4380928 135.1139016 146.3202881
  99.2715206 135.2776769 144.9863385 100.6010000 133.6340000 144.8090000
 100.3146966 133.5193892 143.7635357 101.6725143 133.4630280 144.9125750
  99.8730000 132.6090000 145.6190000  99.5130000 131.5530000 145.1190000
  99.6530000 132.9060000 146.8830000  99.1654090 132.2491986 147.4754259
  99.9728874 133.7892020 147.2541167 100.7410000 137.4610000 144.9420000
 100.8840000 137.8830000 146.0880000 100.1850000 138.1730000 143.9730000
 100.0659679 137.7624537 143.0579140  99.7800000 139.5560000 144.1660000
  99.7218534 139.8028011 145.2260978 100.7550000 140.5360000 143.4850000
 100.9803614 140.1671908 142.4843546 100.1520000 141.9200000 143.3880000
  99.9267815 142.2896894 144.3883536 100.8601746 142.5923055 142.9036504
  99.2339415 141.8766412 142.8020049 102.0510000 140.5880000 144.2400000
 102.5003504 139.5951385 144.2603066 102.7308007 141.2839251 143.7484118
 101.8644576 140.9227547 145.2604127  98.3750000 139.7370000 143.6190000
  98.0640000 139.2610000 142.5240000  97.5280000 140.4060000 144.3900000
  97.7661515 140.5330549 145.3632627  96.2640000 140.9460000 143.9130000
  96.1819883 140.7658450 142.8411243  95.0690000 140.3000000 144.6090000
  95.1492369 140.4646693 145.6834982  93.7810000 140.9050000 144.1020000
  93.6998300 140.7403122 143.0275751  92.9357266 140.4361703 144.6057963
  93.7767649 141.9756784 144.3062804  95.0590000 138.8970000 144.3440000
  94.3064639 138.4937974 144.7829959  96.2840000 142.4380000 144.1790000
  96.5090000 142.8630000 145.3130000  96.0650000 143.2270000 143.1420000
  95.8732627 142.8260666 142.2350333  96.1320000 144.6710000 143.2550000
  96.2011205 144.9531966 144.3055649  97.3540000 145.2170000 142.5220000
  98.2167536 144.6017725 142.7774419  97.1732880 145.1606896 141.4485605
  97.6570000 146.6410000 142.8830000  97.6590000 147.0060000 144.0490000
  97.9140000 147.4580000 141.8820000  98.1246223 148.4282446 142.0673736
  97.8992190 147.1103280 140.9338405  94.8600000 145.2720000 142.6890000
  94.3970000 144.8570000 141.6250000  94.2910000 146.2360000 143.4050000
  94.6704173 146.4470524 144.3169203  93.1190000 146.9750000 142.9570000
  92.9629888 146.8256728 141.8886082  91.8450000 146.5660000 143.6990000
  91.9567936 146.7952803 144.7587320  90.6640000 147.3180000 143.1450000
  90.5512800 147.0888514 142.0853368  89.7609436 147.0212809 143.6784298
  90.8236249 148.3890240 143.2696162  91.6180000 145.0790000 143.5850000
  92.4649093 144.5473355 144.0187968  90.7073090 144.8079538 144.1191119
  91.5175319 144.8057443 142.5346009  93.4230000 148.4500000 143.1700000
  93.2530000 148.9700000 144.2750000  93.8790000 149.1270000 142.1220000
  94.0914571 148.6559127 141.2542224  94.0840000 150.5570000 142.1940000
  94.2014060 150.9079558 141.1687464  93.1756374 150.9818792 142.6211467
  95.2680000 151.0130000 143.0070000  95.4310000 152.2170000 143.2090000
  96.1040000 150.0960000 143.4860000  95.8988615 149.1185233 143.3358108
  97.2980000 150.4390000 144.2150000  97.2786011 151.5084708 144.4246549
  97.2997134 149.8852073 145.1538344  98.5620000 150.1100000 143.4460000
  98.5400000 149.7200000 142.2790000  99.6850000 150.2600000 144.1350000
  99.6374920 150.5445462 145.1029235 100.9960000 150.0700000 143.5360000
 100.8973164 149.7490511 142.4990079 101.8030000 151.3670000 143.5710000
 101.9181009 151.6961600 144.6037175 102.7863414 151.1956203 143.1330857
 101.2810632 152.1357720 143.0012011 101.7230000 148.9680000 144.2820000
 101.8640000 149.0360000 145.5030000 102.1790000 147.9580000 143.5560000
 101.9635832 147.9301176 142.5696342 102.9420000 146.8600000 144.1260000
 103.1824208 147.0546484 145.1711837 102.1830000 145.5290000 144.0370000
 101.9245225 145.3356291 142.9958966 103.0390000 144.4000000 144.5610000
 103.2975137 144.5924477 145.6022663 102.4872417 143.4625429 144.4914480
 103.9507831 144.3292080 143.9679218 100.8940000 145.6130000 144.8080000
 100.2724537 146.4061223 144.3923808 100.3649918 144.6626236 144.7370441
 101.1092499 145.8312085 145.8540179 104.2620000 146.7820000 143.3800000
 104.2770000 146.6060000 142.1580000 105.3650000 146.9160000 144.1070000
 105.2812579 147.0862502 145.0990189 106.6990000 146.8780000 143.5230000
 106.6408727 146.6170579 142.4662930 107.4170000 148.2270000 143.6560000
 107.3329779 148.5788462 144.6842236 108.8690000 148.0740000 143.2960000
 108.9538422 147.7226013 142.2676899 109.3713218 149.0364651 143.3931300
 109.3358124 147.3518714 143.9658643 106.7730000 149.2410000 142.7650000
 105.7275430 149.3626989 143.0483920 107.2899032 150.1952452 142.8666209
 106.8315321 148.9051145 141.7296953 107.4890000 145.7770000 144.2070000
 107.7010000 145.8250000 145.4220000 107.9200000 144.7840000 143.4340000
 107.6714687 144.7547203 142.4554939 108.7070000 143.6880000 143.9790000
 109.0219923 143.9261268 144.9949600 107.9000000 142.3840000 144.0090000
 108.4209364 141.6682735 144.6449726 106.5010000 142.6130000 144.5470000
 105.9792482 143.3283156 143.9112341 105.9553557 141.6694408 144.5552077
 106.5612701 143.0061009 145.5618595 107.8080000 141.8470000 142.6870000
 107.3026933 141.0310074 142.7075325 109.9980000 143.4490000 143.2080000
 110.6640000 142.4380000 143.4470000 110.3710000 144.3410000 142.2910000
 109.8332450 145.1882087 142.1762991 111.5250000 144.1430000 141.4460000
 111.7262220 143.0731030 141.3918766 111.2851546 144.5178571 140.4509846
 112.7660000 144.8540000 141.9560000 112.8340000 145.3290000 143.0910000
 113.7660000 144.9220000 141.0840000 113.6412813 144.4922395 140.1785440
 115.0470000 145.5500000 141.3800000 115.1390045 145.7641348 142.4447914
 116.2290000 144.6680000 140.9530000 116.1212417 144.4073381 139.9001264
 117.5230000 145.4100000 141.1560000 117.6316917 145.6706132 142.2087905
 118.3567486 144.7776852 140.8508086 117.5188308 146.3197241 140.5555949
 116.2360000 143.3770000 141.7270000 115.3080146 142.8362743 141.5410945
 117.0814025 142.7667834 141.4091480 116.3236559 143.5917633 142.7920324
 115.0910000 146.8830000 140.6610000 114.9030000 146.9420000 139.4420000
 115.3370000 147.9510000 141.4060000 115.4321109 147.8515347 142.4065798
 115.4280000 149.2850000 140.8340000 115.4721161 149.2122310 139.7473273
 114.2110000 150.1330000 141.2190000 113.9668998 149.9409373 142.2638097
 114.4940000 151.5970000 141.0320000 114.7377440 151.7899251 139.9872663
 113.6142815 152.1763443 141.3122761 115.3355347 151.8881114 141.6606287
 113.0980000 149.7720000 140.3930000 112.3353125 150.3029686 140.6337913
 116.7170000 149.9240000 141.3200000 116.9320000 150.0450000 142.5270000
 117.5700000 150.3280000 140.3880000 117.3223783 150.1988172 139.4173844
 118.8690000 150.9130000 140.6980000 118.9584847 151.1305160 141.7623207
 120.0030000 149.9780000 140.2950000 119.9322024 149.7582204 139.2297373
 120.9601701 150.4557204 140.5040668 119.9288416 149.0503762 140.8625508
 118.9630000 152.2360000 139.9650000 119.0490000 152.2630000 138.7370000
 118.9320000 153.3310000 140.7070000 118.9453157 153.2459779 141.7133266
 118.8300000 154.6610000 140.1290000 118.9164272 154.6179908 139.0432838
 117.4950000 155.3300000 140.4890000 117.4424536 155.4583698 141.5701380
 117.3820000 156.6720000 139.8190000 117.4340028 156.5443860 138.7377455
 116.4303549 157.1323267 140.0846528 118.1996446 157.3131331 140.1484044
 116.3630000 154.4480000 140.0770000 116.4392162 153.4921531 140.5953144
 115.4174842 154.9256261 140.3338520 116.4046897 154.2813825 139.0006165
 119.9940000 155.4990000 140.6170000 120.2720000 155.5450000 141.8170000
 120.6610000 156.1700000 139.6900000 120.4196278 156.0323533 138.7189736
 121.7470000 157.0800000 140.0070000 121.8103638 157.2519127 141.0814907
 123.0850000 156.5390000 139.5210000 123.0401343 156.3703921 138.4450546
 123.8713764 157.2604992 139.7427007 123.3025324 155.5983339 140.0268915
 121.4510000 158.4090000 139.3510000 121.0720000 158.4510000 138.1820000
 121.6130000 159.4860000 140.0940000 121.9236455 159.4059004 141.0516966
 121.3120000 160.8050000 139.5780000 121.3469351 160.7855746 138.4887336
 119.9270000 161.2620000 140.0120000 119.2372954 160.4428788 139.8084140
 119.9678070 161.4434994 141.0860078 119.4500000 162.5040000 139.3120000
 120.2557055 163.2380449 139.3011515 119.1850051 162.2409800 138.2879393
 118.2480000 163.1190000 139.9770000 118.2230000 163.2980000 141.1880000
 117.2450000 163.4550000 139.1860000 116.4133426 163.8717372 139.5794177
 117.3143314 163.2936403 138.1913857 122.3570000 161.7940000 140.0550000
 122.6400000 161.8840000 141.2480000 122.9300000 162.5330000 139.1160000
 122.7637864 162.3104506 138.1449469 123.8270000 163.6340000 139.4270000
 123.8787672 163.7638018 140.5080045 125.2360000 163.3700000 138.8990000
 125.7073111 162.6734230 139.5923582 125.1237714 162.8927672 137.9254736
 126.0990000 164.6020000 138.7590000 127.0144347 164.3225263 138.2374881
 125.5542150 165.3373751 138.1669401 126.4440000 165.1910000 140.0910000
 125.6765589 165.9177757 140.3573273 126.4576505 164.3903010 140.8304553
 127.7900000 165.8700000 140.0610000 127.9647125 166.3420613 141.0278165
 128.5571857 165.1169172 139.8810236 127.8450000 166.8860000 139.0040000
 127.1344681 167.5841511 139.1708208 128.7548351 167.3245175 139.0055728
 127.6835564 166.4487158 138.1079991 123.2370000 164.8860000 138.8100000
 123.0480000 164.9480000 137.5950000 122.9290000 165.8680000 139.6410000
 123.1132499 165.7664506 140.6288457 122.2950000 167.0910000 139.1810000
 122.2748930 167.0939987 138.0911900 120.8610000 167.2010000 139.6960000
 120.8786904 167.3177606 140.7795840 120.1760000 168.3860000 139.0760000
 120.1575105 168.2697255 137.9923774 119.1548113 168.4533464 139.4511495
 120.7180727 169.2957534 139.3340826 120.1360000 166.0180000 139.3500000
 119.2351514 166.0884776 139.6741992 123.1060000 168.2830000 139.6520000
 123.4850000 168.3560000 140.8210000 123.3760000 169.2050000 138.7440000
 123.1710684 169.0115211 137.7741195 123.9890000 170.4810000 139.0780000
 124.2920647 170.5238600 140.1241424 125.2190000 170.7540000 138.1990000
 124.8954099 170.9035506 137.1689401 125.9410000 171.9830000 138.6810000
 126.2653235 171.8340156 139.7109121 126.8105692 172.1652683 138.0495507
 125.2708730 172.8412832 138.6322007 126.1300000 169.5610000 138.1930000
 125.5954790 168.6970062 137.7981532 126.9972708 169.7686104 137.5662314
 126.4597120 169.3498516 139.2102547 122.9400000 171.5610000 138.8860000
 122.2400000 171.5780000 137.8660000 122.8220000 172.4570000 139.8630000
 123.3306454 172.3240166 140.7253773 121.9110000 173.5970000 139.7640000
 121.9481926 174.1712885 140.6896936 122.2940000 174.5160000 138.6030000
 122.2631718 173.9123410 137.6959473 121.5317458 175.2931792 138.5476729
 123.6590000 175.1570000 138.7360000 124.3566695 174.3882524 139.0682427
 123.9568288 175.5159460 137.7508325 123.6730000 176.3080000 139.7170000
 122.5850000 176.7130000 140.1780000 124.7730000 176.8090000 140.0270000
 120.4640000 173.1420000 139.6270000 119.6760000 173.7350000 138.8910000
 120.1090000 172.0760000 140.3340000 120.7773626 171.5770755 140.9036184
 118.7420000 171.6000000 140.3040000 118.1654494 172.3034450 139.7032890
 118.7472913 170.6253808 139.8159541 118.0920000 171.4660000 141.6650000
 118.4860000 170.6160000 142.4680000 117.0750000 172.2850000 141.9220000
 116.8196556 172.9752996 141.2303462 116.3340000 172.2560000 143.1740000
 116.9431876 171.7910479 143.9491189 115.9680000 173.6690000 143.6230000
 115.3502501 174.1443412 142.8610710 115.4145016 173.6208780 144.5607761
 116.8776409 174.2517546 143.7680848 115.0720000 171.4230000 143.0160000
 114.4630000 171.3970000 141.9450000 114.6830000 170.7430000 144.0890000
 115.2100662 170.7875460 144.9494163 113.4940000 169.9200000 144.0550000
 113.2497201 169.6629690 145.0857093 112.6931395 170.5270869 143.6329013
 113.6240000 168.6520000 143.2510000 112.6130000 168.1220000 142.7860000
 114.8360000 168.1420000 143.0750000 115.6434738 168.6025882 143.4698973
 115.0460000 166.9420000 142.2840000 114.4004026 166.9587125 141.4059203
 116.4960000 166.8610000 141.8210000 117.0916901 166.4043863 142.6114154
 116.5443646 166.2408091 140.9259446 117.0050000 168.1460000 141.5310000
 117.9173894 168.0710348 141.2419921 114.6850000 165.7110000 143.0960000
 115.0460000 165.6050000 144.2690000 113.9600000 164.7890000 142.4750000
 113.5858667 165.0039963 141.5618186 113.6480000 163.4940000 143.0610000
 114.0157307 163.4495405 144.0861325 112.1400000 163.2000000 143.0450000
 111.7634430 163.3224924 142.0294702 111.8780000 161.7910000 143.5110000
 112.2538919 161.6678666 144.5266988 110.8057294 161.5958731 143.4948158
 112.3846089 161.0886992 142.8490180 111.3860000 164.1930000 143.9180000
 110.6218540 163.6371811 144.4613664 112.0997118 164.6149913 144.6255580
 110.7400000 165.3000000 143.1400000 110.0257671 164.8787841 142.4325055
 110.2203106 165.9705359 143.8244003 111.5036253 165.8565932 142.5966950
 114.4020000 162.4430000 142.2720000 114.2120000 162.3220000 141.0610000
 115.2550000 161.6820000 142.9470000 115.4528167 161.8214983 143.9275652
 116.0010000 160.6590000 142.2320000 116.3412554 161.0770865 141.2846199
 117.2210000 160.2280000 143.0410000 116.8960050 159.7988607 143.9887962
 117.7850308 159.4829815 142.4798254 117.8546383 161.0938601 143.2330626
 115.1100000 159.4710000 141.8990000 114.9280000 159.1280000 140.7310000
 114.5280000 158.8360000 142.9060000 114.7067123 159.1132039 143.8606304
 113.6570000 157.6970000 142.6710000 113.3873776 157.6652719 141.6153503
 114.3420000 156.3840000 143.0390000 114.6098614 156.3969824 144.0954950
 113.6630994 155.5531355 142.8470145 115.2430272 156.2626794 142.4377259
 112.3760000 157.8530000 143.4680000 112.4160000 158.0650000 144.6810000
 111.2490000 157.7550000 142.7820000 111.2949509 157.7892032 141.7736261
 109.9400000 157.6500000 143.4100000 110.0115898 157.6013973 144.4965596
 109.0470000 158.8210000 143.0340000 108.9582442 158.8772104 141.9490747
 108.0588599 158.6803634 143.4720648 109.4825636 159.7464116 143.4108247
 109.3650000 156.3170000 142.9540000 108.9060000 156.1870000 141.8180000
 109.3990000 155.3260000 143.8310000 109.6889771 155.5226093 144.7782895
 109.0690000 153.9540000 143.4820000 108.8353746 153.8825324 142.4197332
 110.2470000 153.0230000 143.7880000 110.4539356 153.0620486 144.8574639
 109.9350000 151.6020000 143.3880000 109.7283963 151.5620767 142.3185045
 110.7885704 150.9638682 143.6167017 109.0623181 151.2520489 143.9394174
 111.4040000 153.4660000 143.0710000 112.1420052 152.8827358 143.2627070
 107.8390000 153.5100000 144.2540000 107.7710000 153.6910000 145.4710000
 106.8730000 152.9380000 143.5460000 106.9049244 152.9714388 142.5370590
 105.7590000 152.2580000 144.1760000 105.1505998 151.8463026 143.3707338
 106.1837067 151.4434262 144.7626798 104.8840000 153.1030000 145.0700000
 104.8610000 152.8920000 146.2790000 104.1420000 154.0470000 144.5110000
 104.1349997 154.1918710 143.5114688 103.3620000 154.9440000 145.3410000
 103.1831309 154.4766775 146.3093567 104.0890000 156.2680000 145.5650000
 103.4780582 156.9080644 146.2015273 105.0558720 156.1009379 146.0397092
 104.3550000 157.0390000 144.3130000 105.4830000 156.7890000 143.5610000
 106.1790948 156.0145949 143.8832557 105.7330000 157.5020000 142.4200000
 106.6267622 157.2953557 141.8312828 104.8560000 158.4790000 142.0170000
 105.0520772 159.0481709 141.1083207 103.7330000 158.7380000 142.7590000
 103.0347848 159.5117369 142.4397400 103.4890000 158.0260000 143.8990000
 102.5997378 158.2364359 144.4931628 101.9990000 155.1950000 144.7230000
 101.7400000 154.8750000 143.5640000 101.1240000 155.7760000 145.5360000
 101.3747745 155.8690194 146.5099399  99.8190000 156.2540000 145.1120000
  99.7039316 156.1674798 144.0315498  98.6800000 155.4840000 145.7890000
  98.8463895 155.4689794 146.8661203  97.3620000 156.1520000 145.4940000
  97.1946837 156.1669852 144.4170220  96.5573097 155.5989985 145.9785239
  97.3792099 157.1739375 145.8727470  98.6660000 154.0490000 145.3230000
  99.6143287 153.5749751 145.5761307  97.8514933 153.5153281 145.8127681
  98.5220529 154.0185591 144.2429753  99.7510000 157.7280000 145.4580000
  99.8310000 158.0960000 146.6330000  99.6200000 158.5680000 144.4450000
  99.6273262 158.2035521 143.5030746  99.5120000 160.0090000 144.6270000
  99.5840099 160.2470355 145.6882506 100.6230000 160.7430000 143.8870000
 101.5725939 160.3089774 144.2000417 100.4799305 160.5716419 142.8201038
 100.6340000 162.2230000 144.1600000  99.7019076 162.6463531 143.7857316
 100.6925409 162.3710487 145.2383119 101.7980000 162.9080000 143.4960000
 102.7262008 162.4896330 143.8852447 101.7455335 162.7365498 142.4208481
 101.7610000 164.3920000 143.7710000 100.7881780 164.7742633 143.4618192
 101.8873463 164.5457820 144.8426748 102.8290000 165.1120000 143.0400000
 102.7118536 164.9699843 142.0469199 102.7729087 166.0987729 143.2479254
 103.7305380 164.7582314 143.3266637  98.1430000 160.4490000 144.1320000
  97.8400000 160.3340000 142.9420000  97.3180000 160.9500000 145.0450000
  97.6333532 161.0063714 146.0028486  95.9490000 161.3520000 144.7430000
  95.8318201 161.4636914 143.6650885  94.9530000 160.3140000 145.2350000
  95.3517113 159.8738586 146.1490044  94.0171394 160.8266309 145.4574285
  94.7010000 159.2250000 144.2210000  94.0890339 159.6415385 143.4209412
  95.6625218 158.9098209 143.8157347  93.9970000 158.0370000 144.8250000
  94.6346240 157.6002177 145.5936064  93.0620989 158.3703469 145.2754878
  93.7030000 156.9980000 143.7630000  92.8799625 157.3636495 143.1489883
  94.5934412 156.8829090 143.1449646  93.3360000 155.6850000 144.3510000
  92.5106674 155.7913421 144.9233786  93.1490107 155.0247217 143.6099416
  94.0986796 155.3458036 144.9196517  95.6970000 162.7250000 145.3610000
  94.7190000 162.9320000 146.0760000  96.5980000 163.6590000 145.0860000
  97.3979830 163.4287345 144.5140696  96.4950000 165.0080000 145.6150000
  96.3445723 164.9710966 146.6939387  97.7720000 165.7940000 145.3270000
  98.0264887 165.6515308 144.2767442  97.5619650 166.8478542 145.5096930
  98.9320000 165.3550000 146.1900000  99.9750000 166.0390000 146.1760000
  98.8030000 164.3300000 146.8850000  95.2980000 165.7420000 145.0170000
  94.7050000 165.3180000 144.0240000  94.9490000 166.8600000 145.6450000
  95.4362429 167.1304957 146.4873335  93.8470000 167.6940000 145.1870000
  93.5400797 167.3822608 144.1886424  92.6510000 167.5690000 146.1260000
  93.0121269 167.7593417 147.1366714  91.9365331 168.3424954 145.8443230
  91.9750000 166.2180000 146.0790000  91.5968976 166.0491291 145.0707232
  92.7061258 165.4482207 146.3259756  90.8220000 166.1180000 147.0500000
  90.5350000 167.0600000 147.7870000  90.1520000 164.9720000 147.0590000
  89.3718638 164.8516008 147.6890737  90.4254690 164.2257748 146.4357312
  94.2730000 169.1510000 145.0830000  94.6100000 169.7750000 146.0850000
  94.2984560 169.7171186 143.9924491 219.4300352 124.6142802 130.6547490
 219.6950000 125.5200000 130.8310000 220.0150000 125.9020000 132.1770000
 220.8440840 125.2963244 132.5428924 219.1414055 125.7406598 132.8085875
 220.4060000 127.3680000 132.2310000 220.5561397 127.6714715 133.2670809
 221.7050000 127.5380000 131.6110000 221.7470000 128.7740000 130.9190000
 222.6214570 129.3401962 131.2396986 222.0170000 128.4940000 129.4800000
 221.6730000 127.2980000 128.9260000 221.2066804 126.5349480 129.5315549
 221.9070000 127.0450000 127.6170000 221.6022237 126.0924742 127.1835180
 222.5470000 128.0820000 126.8590000 222.8090000 127.9000000 125.5710000
 223.2603108 128.6536871 125.0726278 222.5597206 127.0321692 125.1184203
 222.8870000 129.2590000 127.4090000 222.6270000 129.4860000 128.7280000
 222.9230000 130.5560000 129.2840000 219.4960000 128.3180000 131.4540000
 219.1623008 127.8857441 130.5106554 220.4230000 129.4870000 131.1750000
 219.8484803 130.3167084 130.7631615 220.9009769 129.8017866 132.1026566
 218.3430000 128.7210000 132.2020000 217.2970000 129.7110000 131.5620000
 216.4250000 130.2650000 132.6320000 216.5940000 129.0690000 130.4270000
 218.2630000 130.8540000 131.0190000 218.6980000 131.8920000 131.9120000
 219.6015972 131.5737998 132.4319623 217.9167966 132.0920940 132.6453378
 218.9890000 133.1660000 131.1400000 219.2273701 133.9725722 131.8333399
 220.1990000 132.9850000 130.3640000 220.0820000 133.6690000 129.1280000
 220.9476578 134.3177689 128.9944530 220.2160000 132.6710000 128.0280000
 219.9400000 131.3260000 128.0480000 219.5723706 130.8623096 128.9514610
 220.1680000 130.7170000 126.9030000 220.6150000 131.7400000 126.0680000
 221.0160000 131.6990000 124.7120000 221.0590000 130.7420000 123.9450000
 221.4090000 132.9650000 124.2550000 221.7174528 133.0369939 123.3064894
 221.4100000 134.1240000 125.0160000 221.8200000 135.2350000 124.4040000
 222.1403861 135.3205522 123.4499906 221.8297049 136.0785965 124.9592942
 221.0340000 134.1610000 126.2960000 220.6500000 132.9370000 126.7490000
 217.9370000 133.5580000 130.1040000 217.5348270 132.6918340 129.5785363
 218.7470000 134.4050000 129.1380000 218.0763420 134.8892981 128.4282308
 219.2973714 135.1644634 129.6933438 216.8460000 134.2930000 130.6690000
 215.6710000 134.7930000 129.7440000 214.8820000 135.8260000 130.4650000
 214.8980000 133.6460000 129.2140000 216.4920000 135.4800000 128.5650000
 216.9470000 136.8330000 128.7180000 217.9209249 136.8394226 129.2074171
 216.2367643 137.3886789 129.3302800 217.0650000 137.5070000 127.3630000
 217.3187669 138.5588600 127.4944999 218.1960000 136.9470000 126.6500000
 217.9000000 136.8740000 125.2650000 218.6587703 137.3569361 124.6492569
 217.9860000 135.4460000 124.8450000 217.8010000 134.3320000 125.6120000
 217.5129291 134.4286901 126.6483724 217.9420000 133.2230000 124.9630000
 218.2320000 133.6350000 123.6710000 218.4860000 132.9230000 122.4830000
 218.4920000 131.5850000 122.4080000 218.6810118 131.1294546 121.5266066
 218.3075114 131.0321373 123.2328670 218.7450000 133.6450000 121.3760000
 218.7360000 134.9690000 121.4530000 218.9386318 135.5572520 120.5702209
 218.5070000 135.7460000 122.4910000 218.2610000 134.9950000 123.5850000
 215.8840000 137.2890000 126.4180000 215.4886901 136.2750599 126.4792719
 216.5260000 137.5010000 125.0570000 215.7516141 137.5343495 124.2906362
 217.0770389 138.4414554 125.0571530 214.8110000 138.2100000 126.6480000
 213.5130000 138.1420000 125.7560000 212.7350000 139.3970000 125.9230000
 212.7690000 136.8850000 126.0090000 214.1540000 138.1030000 124.3000000
 214.5270000 139.3350000 123.6610000 215.5445260 139.6025379 123.9458936
 213.8485555 140.1279985 123.9755903 214.4530000 139.1910000 122.1530000
 214.6457705 140.1546733 121.6815420 215.5380000 138.3420000 121.7010000
 215.1020000 137.5470000 120.6110000 215.8018980 137.6623916 119.7833970
 215.2420000 136.1130000 120.9940000 215.2240000 135.5510000 122.2480000
 215.0958570 136.1758951 123.1194858 215.3750000 134.2430000 122.2490000
 215.4880000 133.9230000 120.8960000 215.6700000 132.6660000 120.2720000
 215.7660000 131.5540000 120.7790000 215.7470000 132.7950000 118.8770000
 215.8831169 131.9593977 118.3447975 215.6560000 133.9890000 118.1780000
 215.7530000 133.9100000 116.8510000 215.8970786 133.0754364 116.3006862
 215.6955454 134.7803825 116.3418495 215.4870000 135.1740000 118.7710000
 215.4110000 135.0600000 120.1250000 213.1970000 138.5030000 121.6200000
 212.8822101 137.6738372 122.2536365 213.6740000 137.9650000 120.2820000
 212.8219436 137.5863837 119.7174215 214.1557679 138.7645388 119.7192056
 212.0930000 139.4030000 121.4680000 210.7150000 138.8710000 120.9180000
 209.8740000 140.0230000 120.4980000 210.0920000 137.9360000 121.8830000
 211.1990000 138.0690000 119.6290000 211.4150000 138.7790000 118.3990000
 212.4359159 139.1597842 118.3701176 210.7196844 139.6159899 118.3350881
 211.1920000 137.8590000 117.2130000 211.2658559 138.4277338 116.2860769
 212.2790000 136.9030000 117.1400000 211.7850000 135.6510000 116.6930000
 212.3468435 135.2754053 115.8378043 212.0640000 134.6360000 117.7500000
 212.1870000 135.0160000 119.0640000 212.0505765 136.0493938 119.3466412
 212.4320000 134.1150000 120.0210000 212.5800000 134.4710000 121.4720000
 211.6617476 134.9385289 121.8274277 212.7746026 133.5677445 122.0502381
 213.4112525 135.1655573 121.5932801 212.5820000 132.7110000 119.7070000
 212.8080000 131.8120000 120.5230000 212.4370000 132.4260000 118.3660000
 212.5422838 131.3810444 118.0743087 212.1790000 133.3330000 117.3530000
 212.0720000 132.9800000 116.1920000 209.9360000 136.9910000 117.2850000
 209.7490187 136.6206307 118.2929501 210.3040000 135.8280000 116.3780000
 209.4248724 135.2062288 116.2087830 210.6665199 136.2110761 115.4240963
 208.7620000 137.6710000 116.8250000 207.3740000 136.9240000 116.8150000
 206.4160000 137.6780000 115.9660000 206.9240000 136.6400000 118.1970000
 207.7730000 135.5650000 116.0890000 207.8070000 135.5180000 114.6530000
 208.7903602 135.8281975 114.2996160 207.0525429 136.1929791 114.2488981
 207.5230000 134.1090000 114.1650000 207.4583867 134.1028425 113.0769345
 208.6600000 133.2620000 114.4660000 208.2100000 131.9620000 114.8090000
 208.7363352 131.2294325 114.1971051 208.6690000 131.6590000 116.1950000
 208.9530000 132.5330000 117.2170000 208.8512011 133.5972748 117.0641663
 209.3410000 131.9440000 118.3300000 209.2950000 130.5850000 118.0180000
 209.6030000 129.4580000 118.8150000 209.9800000 129.4130000 119.9820000
 209.4320000 128.2640000 118.0990000 209.6324742 127.4091613 118.5776016
 209.0140000 128.1740000 116.7810000 208.9120000 126.9470000 116.2730000
 209.1174790 126.0761448 116.7414976 208.6157941 126.8807441 115.3096864
 208.7270000 129.2400000 116.0300000 208.8880000 130.4050000 116.7140000
 206.3460000 133.4060000 114.8390000 206.2938356 133.6246461 115.9055700
 206.6950000 131.9420000 114.6390000 205.8478450 131.3225013 114.9333619
 206.9275461 131.7635237 113.5891578 205.0850000 133.7380000 114.2450000
 203.7590000 133.0960000 114.8040000 202.6660000 133.2840000 113.8160000
 203.4790000 133.5830000 116.1750000 204.1710000 131.5580000 114.8540000
 204.0560000 130.7590000 113.6660000 204.9718642 130.8383380 113.0803395
 203.2182081 131.1160474 113.0670655 203.8200000 129.3050000 114.0280000
 203.6408033 128.7239098 113.1233885 205.0380000 128.7480000 114.5820000
 204.7190000 127.8250000 115.6090000 205.2265170 126.8808890 115.4110601
 205.3430000 128.3020000 116.8770000 205.6730000 129.5840000 117.2440000
 205.4824021 130.4059689 116.5698772 206.2160000 129.6740000 118.4400000
 206.2320000 128.3540000 118.8950000 206.7000000 127.8200000 120.1180000
 207.2020000 128.3990000 121.0750000 206.5380000 126.4280000 120.1630000
 206.8462656 125.9558334 120.9888508 205.9900000 125.6540000 119.1530000
 205.9190000 124.3420000 119.3800000 206.2322375 123.8499703 120.2045540
 205.5275434 123.7766986 118.6402047 205.5510000 126.1610000 117.9980000
 205.7030000 127.5120000 117.9430000 202.7730000 129.0620000 115.1140000
 202.8191821 129.8113848 115.9041825 203.2000000 127.7140000 115.6690000
 202.4344774 127.3418129 116.3498459 203.3307026 127.0078015 114.8490606
 201.4370000 129.0260000 114.6000000 200.2250000 128.7720000 115.5760000
 199.0230000 128.4070000 114.7840000 200.0590000 129.9090000 116.5110000
 200.7460000 127.4950000 116.3720000 200.5610000 126.1890000 115.8040000
 201.4018201 125.9493175 115.1530976 199.6416365 126.1737048 115.2186476
 200.4660000 125.1450000 116.9010000 200.2325120 124.1733385 116.4657338
 201.7720000 124.9680000 117.5050000 201.6290000 124.7260000 118.8940000
 202.1427226 123.8206769 119.2173859 202.3490000 125.8020000 119.6320000
 202.6130000 127.0740000 119.2150000 202.2438650 127.4181675 118.2601756
 203.2610000 127.7840000 120.0800000 203.4300000 126.9180000 121.1500000
 204.0430000 127.0730000 122.4090000 204.6300000 128.2090000 122.8100000
 205.0542105 128.2625318 123.7250306 204.6481987 129.0116438 122.1971945
 204.0380000 126.0070000 123.2320000 203.4540000 124.8870000 122.8320000
 203.4413379 124.0283023 123.4868871 202.8440000 124.6190000 121.6970000
 202.8750000 125.7010000 120.8890000 199.5600000 125.5090000 118.0760000
 199.6381152 126.5628497 118.3432032 200.1360000 124.6590000 119.1950000
 199.4744898 124.6998496 120.0603524 200.2282449 123.6267655 118.8572382
 198.1820000 125.2040000 117.8310000 197.1020000 125.5010000 118.9400000
 195.8500000 124.7680000 118.6170000 196.9580000 126.9600000 119.1530000
 197.7920000 124.8380000 120.2140000 197.6390000 123.4290000 120.4430000
 198.4204568 122.8838886 119.9135864 196.6659514 123.1040572 120.0746399
 197.7340000 123.1220000 121.9270000 197.5228605 122.0667809 122.1002975
 199.1060000 123.2940000 122.3620000 199.1280000 123.8230000 123.6770000
 199.7592503 123.1981151 124.3087762 199.8460000 125.1280000 123.6430000
 199.8910000 125.8690000 122.5000000 199.4116386 125.5097118 121.6013763
 200.5330000 127.0610000 122.4700000 200.5350204 127.6548050 121.5559476
 201.1730000 127.4860000 123.6820000 201.8220000 128.6440000 123.7220000
 202.2590656 128.9073833 124.5936097 201.8682597 129.2303241 122.9009120
 201.1280000 126.7520000 124.8060000 200.4630000 125.5610000 124.8060000
 200.3940000 124.8450000 125.8180000 196.9350000 124.0510000 122.8400000
 196.9678606 125.0874243 122.5040780 197.6840000 123.9210000 124.1550000
 197.1177223 124.4120923 124.9463641 197.8094112 122.8662207 124.3995667
 195.5630000 123.6580000 122.9700000 194.5890000 124.4940000 123.8850000
 193.3630000 123.6970000 124.1550000 194.3680000 125.8440000 123.3180000
 195.4550000 124.6060000 125.2160000 195.4250000 123.5300000 126.1680000
 196.1822636 122.7902885 125.9082334 194.4429473 123.0573288 126.1520316
 195.6990000 124.0550000 127.5660000 195.5815277 123.2500547 128.2915086
 197.0940000 124.4340000 127.6670000 197.2190000 125.5780000 128.4960000
 197.9591882 125.3765380 129.2703602 197.8380000 126.6700000 127.6920000
 197.8070000 126.8610000 126.3310000 197.2808199 126.1617616 125.6980686
 198.4590000 127.9320000 125.9270000 198.9410000 128.4910000 127.1110000
 199.7160000 129.6560000 127.3170000 200.1460000 130.4570000 126.4940000
 199.9960000 129.8500000 128.6780000 200.5484445 130.6463217 128.9243237
 199.5750000 129.0230000 129.7070000 199.9430000 129.3730000 130.9390000
 200.5052239 130.1697064 131.2021797 199.6439159 128.7659463 131.6887569
 198.8450000 127.9220000 129.5090000 198.5670000 127.7230000 128.1920000
 194.9390000 125.3220000 127.9500000 194.8641553 126.0233065 127.1189367
 195.8310000 125.9100000 129.0300000 195.3185204 126.7427272 129.5116942
 196.0564760 125.1444157 129.7723890 193.6190000 125.0540000 128.4390000
 192.6930000 126.2440000 128.8960000 191.5610000 125.7090000 129.6960000
 192.3190000 127.0910000 127.7390000 193.6850000 127.0470000 129.8490000
 193.8320000 126.6360000 131.2180000 194.6073100 125.8732279 131.2899246
 192.8893108 126.2231738 131.5771826 194.2160000 127.8210000 132.0850000
 194.2321508 127.5205126 133.1326382 195.5840000 128.2000000 131.7950000
 195.7170000 129.6090000 131.8770000 196.5232045 129.9159689 132.5432610
 196.1690000 130.1130000 130.5490000 195.9700000 129.5470000 129.3240000
 195.3841411 128.6442265 129.2336071 196.4830000 130.2210000 128.3470000
 197.0570000 131.3170000 128.9740000 197.7630000 132.4310000 128.4780000
 198.0240000 132.6230000 127.1790000 198.5352271 133.4419708 126.8822931
 197.7096748 131.9488763 126.4957316 198.1990000 133.3320000 129.3790000
 197.9360000 133.1400000 130.6640000 198.2772421 133.8599916 131.3930851
 197.2860000 132.1560000 131.2470000 196.8710000 131.2640000 130.3230000
 193.4150000 129.0980000 131.8410000 193.2038388 129.2537253 130.7830495
 194.3740000 130.1700000 132.3290000 193.8593286 131.1302181 132.3635529
 194.7298744 129.9129904 133.3266972 192.1760000 129.1250000 132.5600000
 191.2240000 130.3750000 132.4400000 190.2230000 130.3400000 133.5390000
 190.6710000 130.4810000 131.0690000 192.2540000 131.5610000 132.6960000
 192.5730000 131.9370000 134.0460000 193.4017063 131.3295213 134.4097521
 191.7043016 131.7742744 134.6839531 192.9640000 133.4020000 134.1070000
 193.1130252 133.7006618 135.1446377 194.2640000 133.5750000 133.4890000
 194.3070000 134.8150000 132.8030000 195.1841993 135.3734233 133.1297781
 194.5790000 134.5420000 131.3630000 194.2990000 133.4120000 130.6330000
 193.8174176 132.5684977 131.1052122 194.6700000 133.4850000 129.3720000
 195.2230000 134.7620000 129.2640000 195.7940000 135.4140000 128.1470000
 195.9330000 135.0070000 126.9980000 196.2460000 136.6990000 128.4810000
 196.6764189 137.2371960 127.7563738 196.1520000 137.2790000 129.7360000
 196.6400000 138.5120000 129.8600000 197.0818466 139.0660597 129.1403544
 196.5792472 138.9311322 130.7769178 195.6150000 136.6600000 130.7900000
 195.1730000 135.4110000 130.4780000 192.0550000 134.3550000 133.3340000
 191.7221582 133.9272623 132.3882963 192.9840000 135.5270000 133.0610000
 192.4100327 136.3588030 132.6526318 193.4612144 135.8372268 133.9905837
 190.9010000 134.7550000 134.0830000 189.8570000 135.7510000 133.4470000
 188.9840000 136.2980000 134.5180000 189.1550000 135.1130000 132.3080000
 190.8230000 136.8960000 132.9110000 191.2580000 137.9280000 133.8090000
 192.1615499 137.6058064 134.3265799 190.4766181 138.1247275 134.5430581
 191.5500000 139.2050000 133.0440000 191.7870206 140.0066090 133.7435310
 192.7620000 139.0300000 132.2680000 192.6460000 139.7200000 131.0350000
 193.4878963 140.3912534 130.8655047 192.7810000 138.7270000 129.9310000
 192.4510000 137.4090000 130.1350000 192.0567898 137.0877692 131.0877903
 192.5650000 136.5110000 129.1510000 192.2230000 135.0590000 129.3160000
 191.1737618 134.9617321 129.5948148 192.3989085 134.5347401 128.3766876
 192.8475934 134.6244921 130.0965033 193.0420000 136.8920000 127.8400000
 193.1770000 136.1340000 126.8740000 193.3420000 138.2330000 127.7300000
 193.7094722 138.5728535 126.7617209 193.2320000 139.1890000 128.7260000
 193.5280000 140.3530000 128.5290000 190.5000000 139.6040000 132.0090000
 190.0988582 138.7401877 131.4788941 191.3110000 140.4560000 131.0480000
 190.6408664 140.9452749 130.3411547 191.8621893 141.2115207 131.6078920
 189.4080000 140.3360000 132.5760000 188.2350000 140.8410000 131.6520000
 187.4450000 141.8700000 132.3780000 187.4620000 139.6970000 131.1150000
 189.0570000 141.5330000 130.4780000 189.5120000 142.8860000 130.6380000
 190.4851685 142.8899368 131.1289457 188.8009554 143.4387905 131.2519535
 189.6320000 143.5670000 129.2870000 189.8864445 144.6179605 129.4242565
 190.7630000 143.0100000 128.5730000 190.4690000 142.9440000 127.1870000
 191.2703324 143.4289098 126.6294804 190.5550000 141.5180000 126.7600000
 190.3750000 140.3820000 127.5110000 190.1380059 140.4599587 128.5617893
 190.5210000 139.2630000 126.8310000 190.8070000 139.6990000 125.5370000
 191.0640000 138.9540000 124.3620000 191.0920000 137.7380000 124.2070000
 191.3190000 139.7940000 123.2690000 191.5205242 139.3586418 122.3915892
 191.3210000 141.1800000 123.3090000 191.5870000 141.8070000 122.1630000
 191.7983459 141.3810539 121.2719314 191.5973330 142.8165042 122.1929241
 191.0810000 141.8810000 124.4190000 190.8310000 141.0760000 125.4870000
 188.4530000 143.3550000 128.3400000 188.0583333 142.3405311 128.3964780
 189.0960000 143.5730000 126.9820000 188.3222921 143.6128370 126.2152613
 189.6495105 144.5119835 126.9880269 187.3790000 144.2740000 128.5730000
 186.0820000 144.2110000 127.6790000 185.3040000 145.4660000 127.8510000
 185.3380000 142.9540000 127.9250000 186.7250000 144.1800000 126.2230000
 187.0990000 145.4140000 125.5920000 188.1163209 145.6792258 125.8797735
 186.4204140 146.2055310 125.9099628 187.0270000 145.2780000 124.0820000
 187.2205479 146.2439035 123.6154499 188.1120000 144.4310000 123.6270000
 187.6770000 143.6420000 122.5330000 188.3716901 143.7583319 121.7011516
 187.8150000 142.2060000 122.9090000 187.7790000 141.8210000 124.2150000
 187.6581430 142.5593409 124.9938749 187.8930000 140.5170000 124.5590000
 187.8352447 140.2233307 125.6071045 188.0730000 139.5760000 123.4900000
 188.1940000 138.2810000 123.7560000 188.3191495 137.6512515 122.9763494
 188.1600693 137.9519262 124.7102854 188.1110000 139.9600000 122.2030000
 187.9820000 141.2810000 121.8910000 188.0120000 141.6870000 120.7170000
 185.7710000 144.5940000 123.5450000 185.4555739 143.7616096 124.1740719
 186.2490000 144.0630000 122.2050000 185.3972507 143.6884554 121.6372513
 186.7323739 144.8650972 121.6472456 184.6670000 145.4950000 123.3960000
 183.2900000 144.9660000 122.8410000 182.4500000 146.1200000 122.4270000
 182.6650000 144.0260000 123.8010000 183.7750000 144.1710000 121.5490000
 183.9930000 144.8870000 120.3230000 185.0141985 145.2672613 120.2974062
 183.2982478 145.7247038 120.2624000 183.7710000 143.9730000 119.1320000
 183.8466348 144.5471211 118.2085480 184.8570000 143.0170000 119.0550000
 184.3640000 141.7670000 118.6030000 184.9574244 141.4291210 117.7534209
 184.6410000 140.7470000 119.6540000 184.7700000 141.1110000 120.9610000
 184.6811348 142.1489473 121.2459003 185.0100000 140.1860000 121.9190000
 185.0829838 140.4904124 122.9630818 185.1410000 138.8230000 121.4890000
 185.3790000 137.8640000 122.3750000 185.4643799 136.9180687 122.0314527
 185.4691475 138.0878946 123.3557375 185.0150000 138.4680000 120.1980000
 184.7620000 139.4250000 119.2600000 184.6390000 139.1490000 118.0560000
 182.5150000 143.1050000 119.1970000 182.3275351 142.7312462 120.2036100
 182.8830000 141.9460000 118.2870000 182.0032639 141.3263764 118.1131313
 183.2484990 142.3322953 117.3355345 181.3410000 143.7880000 118.7400000
 179.9530000 143.0420000 118.7260000 178.9960000 143.8000000 117.8790000
 179.5010000 142.7500000 120.1060000 180.3520000 141.6860000 117.9920000
 180.3880000 141.6460000 116.5570000 181.3713511 141.9582070 116.2053647
 179.6345136 142.3233795 116.1551098 180.1040000 140.2400000 116.0610000
 180.0409177 140.2386884 114.9728280 181.2400000 139.3900000 116.3600000
 180.7900000 138.0890000 116.6960000 181.2831260 137.3226492 116.0979762
 181.2470000 137.7800000 118.0800000 181.4820000 138.7920000 118.9780000
 181.3042601 139.8194648 118.6967085 181.8880000 138.5280000 120.2240000
 182.1630000 139.5910000 121.2460000 181.2572992 140.1722064 121.4192186
 182.4792790 139.1252601 122.1793562 182.9525354 140.2490668 120.8831208
 182.0990000 137.1670000 120.6690000 182.4710000 136.8300000 121.7980000
 181.8340000 136.2210000 119.7020000 181.9810763 135.1785965 119.9846026
 181.4080000 136.4620000 118.4060000 181.2040000 135.5530000 117.6230000
 178.9260000 139.5340000 116.7310000 178.8715524 139.7462797 117.7987413
 179.2750000 138.0710000 116.5230000 178.4277804 137.4499264 116.8138364
 179.5076885 137.8982812 115.4722267 177.6660000 139.8700000 116.1360000
 176.3390000 139.2240000 116.6910000 175.2470000 139.4190000 115.7020000
 176.0570000 139.7040000 118.0640000 176.7510000 137.6860000 116.7340000
 176.6370000 136.8940000 115.5400000 177.5542580 136.9755567 114.9568308
 175.8000489 137.2551530 114.9423530 176.4000000 135.4380000 115.8960000
 176.2218808 134.8621754 114.9878156 177.6170000 134.8780000 116.4480000
 177.2960000 133.9490000 117.4700000 177.7995196 133.0030166 117.2707951
 177.9190000 134.4190000 118.7400000 178.1840000 135.7410000 118.9380000
 177.9519702 136.4620046 118.1681205 178.7390000 136.1720000 120.0950000
 178.9221669 137.2356678 120.2471876 179.0470000 135.1750000 121.0800000
 179.5950000 135.5280000 122.2360000 179.7965762 134.7966369 122.9027650
 179.7977066 136.4986451 122.4279887 178.7860000 133.8720000 120.8800000
 178.2170000 133.4730000 119.7070000 177.9570000 132.2810000 119.4740000
 175.3510000 135.1890000 116.9790000 175.3965767 135.9340369 117.7733183
 175.7770000 133.8380000 117.5270000 175.0100974 133.4617441 118.2040459
 175.9095556 133.1366011 116.7032472 174.0150000 135.1570000 116.4630000
 172.8030000 134.8980000 117.4370000 171.6010000 134.5380000 116.6410000
 172.6360000 136.0310000 118.3780000 173.3220000 133.6170000 118.2260000
 173.1370000 132.3130000 117.6520000 173.9784162 132.0763287 117.0007661
 172.2180141 132.3004522 117.0659896 173.0410000 131.2640000 118.7440000
 172.8075530 130.2943409 118.3042693 174.3460000 131.0840000 119.3480000
 174.2010000 130.8350000 120.7350000 174.7440005 129.9278405 121.0001627
 174.9210000 131.9070000 121.4800000 175.1140000 133.1340000 120.9200000
 174.7529954 133.3379298 119.9227597 175.7570000 134.1130000 121.5980000
 175.8799412 135.0972132 121.1459932 176.2370000 133.7880000 122.9110000
 176.8790000 134.7000000 123.6300000 177.2008822 134.4319736 124.5490507
 177.0329028 135.6261014 123.2575062 176.0470000 132.5760000 123.4580000
 175.3850000 131.6150000 122.7520000 175.1850000 130.4790000 123.2130000
 172.1340000 131.6230000 119.9190000 172.2124967 132.6753950 120.1917669
 172.7080000 130.7670000 121.0340000 172.0455004 130.8037927 121.8987773
 172.7999615 129.7364733 120.6909869 170.7560000 131.3190000 119.6720000
 169.6750000 131.6110000 120.7810000 168.4230000 130.8810000 120.4520000
 169.5310000 133.0690000 121.0000000 170.3630000 130.9420000 122.0510000
 170.2090000 129.5300000 122.2740000 170.9916585 128.9877254 121.7434494
 169.2363090 129.2070019 121.9029946 170.3020000 129.2170000 123.7560000
 170.0909189 128.1608531 123.9236241 171.6740000 129.3870000 124.1930000
 171.6950000 129.9090000 125.5110000 172.3286085 129.2778510 126.1341296
 172.4140000 131.2140000 125.4850000 172.5580000 132.0960000 124.4400000
 172.1161534 131.8756976 123.4794583 173.2590000 133.1700000 124.7420000
 173.5860000 132.9830000 126.0850000 174.3320000 133.8060000 126.9620000
 174.8650000 134.8890000 126.7430000 174.4360000 133.2320000 128.2370000
 174.9539204 133.7368841 128.9275426 173.8840000 132.0170000 128.6150000
 174.0920000 131.6380000 129.8750000 174.6175459 132.1345524 130.5802217
 173.6982292 130.7494048 130.1496707 173.1830000 131.2410000 127.7850000
 173.0760000 131.7900000 126.5430000 169.5020000 130.1400000 124.6720000
 169.5359376 131.1775158 124.3395724 170.2500000 130.0050000 125.9880000
 169.6817054 130.4910199 126.7810480 170.3772842 128.9492902 126.2275323
 168.1300000 129.7480000 124.7980000 167.1560000 130.5800000 125.7170000
 165.9300000 129.7820000 125.9820000 166.9350000 131.9330000 125.1560000
 168.0200000 130.6840000 127.0510000 167.9890000 129.6040000 127.9970000
 168.7449351 128.8637949 127.7347812 167.0069806 129.1313879 127.9776003
 168.2610000 130.1200000 129.3970000 168.1427643 129.3112145 130.1181003
 169.6560000 130.5000000 129.5030000 169.7810000 131.6400000 130.3360000
 170.5204561 131.4344565 131.1099869 170.4010000 132.7350000 129.5380000
 170.3720000 132.9330000 128.1790000 169.8468338 132.2366266 127.5420805
 171.0240000 134.0060000 127.7810000 171.5050000 134.5590000 128.9690000
 172.2810000 135.7220000 129.1810000 172.7110000 136.5280000 128.3620000
 172.5590000 135.9090000 130.5430000 173.1088416 136.7054496 130.7946760
 172.1370000 135.0760000 131.5670000 172.5030000 135.4210000 132.8020000
 173.0638309 136.2171859 133.0696884 172.2035804 134.8101114 133.5485011
 171.4070000 133.9770000 131.3640000 171.1300000 133.7860000 130.0440000
 167.5010000 131.3880000 129.7870000 167.4267759 132.0945163 128.9603052
 168.3920000 131.9690000 130.8710000 167.8800638 132.8000732 131.3561164
 168.6151702 131.1993309 131.6098536 166.1810000 131.1170000 130.2730000
 165.2540000 132.3050000 130.7350000 164.1210000 131.7660000 131.5310000
 164.8820000 133.1580000 129.5810000 166.2460000 133.1010000 131.6930000
 166.3910000 132.6850000 133.0600000 167.1645266 131.9203091 133.1307424
 165.4477183 132.2710962 133.4163759 166.7740000 133.8640000 133.9340000
 166.7894639 133.5580785 134.9800747 168.1430000 134.2460000 133.6470000
 168.2760000 135.6540000 133.7360000 169.0895676 135.9422268 134.4016818
 168.7300000 136.1640000 132.4110000 168.4450000 135.4680000 131.2620000
 167.8588462 134.5620130 131.3068507 168.8430000 135.9170000 130.0680000
 168.5650000 135.1980000 128.7810000 167.4880001 135.1033587 128.6423862
 168.9895835 135.7616578 127.9502662 169.0151424 134.2058371 128.8139260
 169.5900000 137.1490000 129.9420000 169.9960000 137.6400000 128.8840000
 169.8230000 137.7800000 131.1460000 170.3839553 138.7138032 131.1080325
 169.4220000 137.3430000 132.3990000 169.6820000 137.9730000 133.4070000
 165.9740000 135.1440000 133.6950000 165.7637187 135.3067373 132.6379299
 166.9320000 136.2130000 134.1910000 166.4175907 137.1732228 134.2291363
 167.2851375 135.9507210 135.1882983 164.7350000 135.1670000 134.4140000
 163.7820000 136.4180000 134.2980000 162.7810000 136.3780000 135.3950000
 163.2310000 136.5310000 132.9270000 164.8130000 137.6030000 134.5620000
 165.1310000 137.9720000 135.9140000 165.9593447 137.3624894 136.2751674
 164.2618054 137.8061144 136.5504616 165.5220000 139.4360000 135.9830000
 165.6694403 139.7291040 137.0224473 166.8230000 139.6120000 135.3680000
 166.8670000 140.8550000 134.6880000 167.7161775 141.4677520 134.9905421
 167.1410000 140.5900000 133.2470000 166.8520000 139.4640000 132.5310000
 166.3228502 138.6459192 132.9969891 167.2120000 139.5280000 131.2900000
 167.7720000 140.7910000 131.1780000 168.3440000 141.4830000 130.0920000
 168.4530000 140.9650000 128.8600000 168.8726847 141.5081796 128.1191073
 168.1154181 140.0316518 128.6729217 168.8100000 142.7230000 130.3290000
 168.6990000 143.2320000 131.5480000 169.0670461 144.2276714 131.7469461
 168.1820000 142.6980000 132.6350000 167.7340000 141.4520000 132.3690000
 164.6140000 140.3940000 135.2130000 164.2814921 139.9715587 134.2648014
 165.5440000 141.5660000 134.9470000 164.9714912 142.3998744 134.5408149
 166.0193770 141.8720568 135.8789046 163.4600000 140.7910000 135.9630000
 162.4160000 141.7880000 135.3310000 161.5420000 142.3320000 136.4030000
 161.7160000 141.1580000 134.1880000 163.3840000 142.9370000 134.8020000
 163.8180000 143.9650000 135.7070000 164.7200396 143.6410115 136.2260915
 163.0352180 144.1582610 136.4404870 164.1120000 145.2460000 134.9480000
 164.3491606 146.0451634 135.6502764 165.3240000 145.0730000 134.1720000
 165.2090000 145.7690000 132.9420000 166.0715312 146.4229614 132.8136506
 165.3460000 144.7840000 131.8330000 165.0270000 143.4720000 132.0240000
 164.6796007 143.1332760 132.9888728 165.1390000 142.5760000 131.0150000
 164.8559145 141.5358745 131.1765610 165.6240000 143.0700000 129.7580000
 165.7610000 142.2460000 128.7260000 166.1053482 142.6327896 127.8588676
 165.5248966 141.2685066 128.8201445 165.9400000 144.3630000 129.5750000
 165.8050000 145.2420000 130.6090000 166.0850000 146.4460000 130.4920000
 163.0630000 145.6490000 133.9130000 162.6623030 144.7885327 133.3771485
 163.8750000 146.5070000 132.9580000 163.2056461 146.9997964 132.2528644
 164.4248027 147.2597264 133.5229957 161.9700000 146.3800000 134.4830000
 160.7980000 146.8900000 133.5610000 160.0080000 147.9150000 134.2910000
 160.0260000 145.7490000 133.0170000 161.6220000 147.5870000 132.3900000
 162.0770000 148.9400000 132.5580000 163.0493110 148.9420717 133.0506531
 161.3648863 149.4895594 133.1736128 162.1990000 149.6270000 131.2110000
 162.4538243 150.6770840 131.3541347 163.3310000 149.0730000 130.4940000
 163.0380000 149.0140000 129.1090000 163.8387864 149.5022740 128.5536363
 163.1240000 147.5910000 128.6740000 162.9430000 146.4510000 129.4190000
 162.7044654 146.5237004 130.4698177 163.0900000 145.3360000 128.7340000
 163.3770000 145.7780000 127.4430000 163.6350000 145.0380000 126.2650000
 163.6620000 143.8230000 126.1020000 163.8920000 145.8840000 125.1760000
 164.0960683 145.4524170 124.2973130 163.8940000 147.2700000 125.2220000
 164.1620000 147.9030000 124.0800000 164.3750853 147.4818053 123.1870890
 164.1721073 148.9123335 124.1152809 163.6530000 147.9660000 126.3360000
 163.4020000 147.1540000 127.4000000 161.0210000 149.4200000 130.2610000
 160.6260492 148.4053865 130.3126925 161.6650000 149.6440000 128.9040000
 160.8917760 149.6869820 128.1369430 162.2183306 150.5830511 128.9144087
 159.9470000 150.3380000 130.4980000 158.6510000 150.2810000 129.6020000
 157.8740000 151.5350000 129.7800000 157.9060000 149.0220000 129.8400000
 159.2950000 150.2560000 128.1460000 159.6710000 151.4940000 127.5220000
 160.6877765 151.7584132 127.8124328 158.9924895 152.2842249 127.8433545
 159.6010000 151.3660000 126.0120000 159.7956823 152.3338358 125.5499480
 160.6860000 150.5200000 125.5540000 160.2520000 149.7370000 124.4560000
 160.9054672 149.8316209 123.5887476 160.3890000 148.2990000 124.8240000
 160.3620000 147.7460000 126.0710000 160.1787936 148.3665787 126.9357075
 160.5090000 146.4610000 126.0750000 160.6340000 146.1430000 124.7310000
 160.8090000 144.9170000 124.0590000 160.8970000 143.7350000 124.6850000
 161.0224289 142.8879704 124.1493604 160.8378795 143.6914011 125.6923245
 160.9010000 144.9600000 122.7160000 160.8100000 146.1300000 122.1000000
 160.8780657 146.1740106 121.0230463 160.6390000 147.3330000 122.6080000
 160.5610000 147.2590000 123.9550000 158.3450000 150.6840000 125.4700000
 158.0290502 149.8482643 126.0943560 158.8240000 150.1600000 124.1270000
 157.9725950 149.7885632 123.5566988 159.3077765 150.9650560 123.5738767
 157.2410000 151.5860000 125.3240000 155.8650000 151.0610000 124.7650000
 155.0260000 152.2180000 124.3560000 155.2380000 150.1170000 125.7190000
 156.3510000 150.2720000 123.4690000 156.5710000 150.9940000 122.2470000
 157.5929247 151.3724999 122.2244675 155.8772619 151.8327987 122.1900370
 156.3490000 150.0860000 121.0520000 156.4257622 150.6650585 120.1317293
 157.4350000 149.1300000 120.9710000 156.9430000 147.8830000 120.5110000
 157.5433708 147.5535730 119.6629835 157.2180000 146.8580000 121.5570000
 157.3690000 147.0300000 122.9120000 157.2902100 148.0164547 123.3445521
 157.6080000 145.9130000 123.5690000 157.6010000 144.9370000 122.5730000
 157.8000000 143.5390000 122.6680000 158.0240000 142.8530000 123.6590000
 157.7210000 142.9250000 121.4090000 157.8557298 141.9348239 121.3716141
 157.4770000 143.5810000 120.2130000 157.4390000 142.8240000 119.1170000
 157.5802180 141.8253904 119.0628093 157.2698911 143.3025781 118.2438069
 157.2910000 144.9010000 120.1250000 157.3660000 145.5070000 121.3420000
 155.0930000 149.2190000 121.1110000 154.9033782 148.8395647 122.1150773
 155.4620000 148.0650000 120.1950000 154.5825804 147.4460440 120.0171973
 155.8280239 148.4565273 119.2458777 153.9210000 149.9050000 120.6560000
 152.5320000 149.1580000 120.6360000 151.5760000 149.9220000 119.7920000
 152.0780000 148.8600000 122.0140000 152.9310000 147.8070000 119.8960000
 152.9690000 147.7730000 118.4610000 153.9532114 148.0864036 118.1128533
 152.2166220 148.4526635 118.0608932 152.6850000 146.3710000 117.9570000
 152.6227728 146.3758624 116.8687889 153.8200000 145.5190000 118.2520000
 153.3690000 144.2160000 118.5810000 153.8912525 143.4848396 117.9639456
 153.8250000 143.8990000 119.9650000 154.0660000 144.8950000 120.8630000
 153.9369672 145.9279823 120.5754273 154.4690000 144.6100000 122.1240000
 154.6324734 145.4167976 122.8384610 154.6460000 143.2230000 122.4530000
 155.0410000 142.8730000 123.6700000 155.1537831 141.8878128 123.8617985
 155.2189615 143.5788379 124.3701600 154.4090000 142.2460000 121.5620000
 153.9940000 142.5670000 120.3040000 153.7630000 141.7000000 119.4450000
 151.5060000 145.6620000 118.6220000 151.4512288 145.8691713 119.6907277
 151.8540000 144.1990000 118.4070000 151.0058808 143.5773005 118.6938497
 152.0876426 144.0312792 117.3556290 150.2470000 146.0010000 118.0280000
 148.9190000 145.3530000 118.5780000 147.8280000 145.5530000 117.5880000
 148.6360000 145.8270000 119.9520000 149.3300000 143.8150000 118.6130000
 149.2170000 143.0280000 117.4160000 150.1340586 143.1124702 116.8329320
 148.3808205 143.3918543 116.8189116 148.9790000 141.5700000 117.7630000
 148.8019095 140.9976706 116.8524082 150.1960000 141.0070000 118.3150000
 149.8730000 140.0740000 119.3310000 150.3501113 139.1087439 119.1614575
 150.4940000 140.5360000 120.6040000 150.7530000 141.8710000 120.8070000
 150.4773382 142.5984687 120.0578670 151.3060000 142.3000000 121.9470000
 151.6140000 143.7420000 122.2230000 150.6939841 144.3250286 122.1811927
 152.0583652 143.8359541 123.2138643 152.3137615 144.1142674 121.4747686
 151.6560000 141.3760000 123.0030000 152.1670000 141.6810000 124.0850000
 151.3550000 140.0620000 122.7110000 151.6017062 139.3226605 123.4729802
 150.7790000 139.5870000 121.5440000 150.5570000 138.4010000 121.3810000
 147.9290000 141.3170000 118.8440000 147.9740740 142.0581882 119.6419393
 148.3540000 139.9630000 119.3860000 147.5864519 139.5839616 120.0607585
 148.4867390 139.2654180 118.5590418 146.5940000 141.2870000 118.3270000
 145.3800000 141.0250000 119.2980000 144.1790000 140.6680000 118.4980000
 145.2130000 142.1530000 120.2430000 145.8980000 139.7390000 120.0810000
 145.7140000 138.4380000 119.4990000 146.5567951 138.2048160 118.8482914
 144.7961159 138.4288605 118.9112025 145.6160000 137.3830000 120.5860000
 145.3830093 136.4156318 120.1410129 146.9200000 137.2000000 121.1900000
 146.7730000 136.9430000 122.5770000 147.3206706 136.0355643 122.8313947
 147.4930000 138.0120000 123.3280000 147.7720000 139.3000000 122.9370000
 147.4563987 139.6520523 121.9659917 148.4310000 140.0000000 123.8380000
 148.5830000 139.1100000 124.9000000 149.2120000 139.2910000 126.1550000
 149.7720000 140.2850000 126.6060000 149.1500000 138.1230000 126.9310000
 149.5747543 138.1490227 127.8359338 148.5520000 136.9350000 126.5410000
 148.5950000 135.9330000 127.4190000 149.0261342 135.9431886 128.3323016
 148.1673626 135.0638612 127.1329494 147.9610000 136.7660000 125.3560000
 148.0150000 137.8930000 124.5950000 144.7070000 137.7360000 121.7620000
 144.7859445 138.7871239 122.0394977 145.2800000 136.8750000 122.8730000
 144.6162321 136.9066959 123.7370062 145.3733865 135.8463554 122.5247624
 143.3290000 137.4350000 121.5120000 142.2470000 137.7220000 122.6220000
 140.9950000 136.9940000 122.2870000 142.1030000 139.1790000 122.8480000
 142.9330000 137.0450000 123.8890000 142.7790000 135.6330000 124.1040000
 143.5619862 135.0934929 123.5711165 141.8065855 135.3120130 123.7305325
 142.8710000 135.3120000 125.5850000 142.6591980 134.2550724 125.7466891
 144.2410000 135.4790000 126.0250000 144.2610000 135.9940000 127.3450000
 144.8758903 135.3846935 128.0073856 144.9810000 137.2990000 127.3250000
 145.0190000 138.0560000 126.1800000 144.4997553 137.7259996 125.2923712
 145.6570000 139.2310000 126.1520000 145.7350000 140.0990000 124.9300000
 144.7288166 140.3772576 124.6165239 146.3056525 140.9990495 125.1588376
 146.2272553 139.5519441 124.1259391 146.3340000 139.7440000 127.3220000
 146.9450000 140.8150000 127.3880000 146.2360000 138.9190000 128.4230000
 146.7299605 139.2583290 129.3334722 145.5800000 137.7000000 128.4860000
 145.5560000 137.0430000 129.5100000 142.0700000 136.2310000 126.5050000
 142.1044422 137.2705124 126.1789227 142.8160000 136.0880000 127.8200000
 142.2475368 136.5703975 128.6151361 142.9417397 135.0308421 128.0538951
 140.6970000 135.8380000 126.6280000 139.7230000 136.6660000 127.5490000
 138.4960000 135.8680000 127.8080000 139.5030000 138.0220000 126.9950000
 140.5850000 136.7630000 128.8840000 140.5520000 135.6780000 129.8250000
 141.3087851 134.9397677 129.5596900 139.5696122 135.2063085 129.8021517
 140.8230000 136.1880000 131.2280000 140.7039953 135.3754711 131.9447524
 142.2180000 136.5660000 131.3360000 142.3430000 137.7010000 132.1770000
 143.0786223 137.4967653 132.9549764 142.9640000 138.8010000 131.3850000
 142.8380000 138.8400000 130.0290000 142.2913629 138.0646436 129.5128506
 143.3910000 139.8430000 129.3090000 143.2598140 139.8721042 128.2273145
 144.1240000 140.8400000 130.0370000 144.6950000 141.8510000 129.3950000
 145.2011969 142.5303834 129.9448214 144.6174325 141.9252100 128.3907204
 144.2470000 140.7960000 131.3750000 143.6690000 139.7770000 132.0710000
 143.7550000 139.6910000 133.3070000 140.0630000 137.4520000 131.6240000
 139.9910504 138.1611534 130.7993646 140.9530000 138.0290000 132.7120000
 140.4393722 138.8564747 133.2014603 141.1773323 137.2557248 133.4467249
 138.7420000 137.1810000 132.1070000 137.8160000 138.3670000 132.5740000
 136.6820000 137.8230000 133.3660000 137.4450000 139.2250000 131.4240000
 138.8070000 139.1580000 133.5370000 138.9500000 138.7340000 134.9020000
 139.7241740 137.9696203 134.9689206 138.0061308 138.3182375 135.2546375
 139.3320000 139.9090000 135.7820000 139.3459095 139.5969261 136.8262776
 140.7010000 140.2910000 135.4990000 140.8350000 141.6980000 135.5950000
 141.6475475 141.9821296 136.2636824 141.2910000 142.2160000 134.2740000
 141.0070000 141.5250000 133.1200000 140.4205689 140.6189067 133.1586471
 141.4070000 141.9810000 131.9290000 141.1290000 141.2670000 130.6380000
 140.0520121 141.1735106 130.4985140 141.5542560 141.8338753 129.8098033
 141.5785992 140.2744686 130.6670067 142.1540000 143.2130000 131.8100000
 142.5620000 143.7090000 130.7550000 142.3860000 143.8370000 133.0180000
 142.9485595 144.7700611 132.9859919 141.9830000 143.3940000 134.2670000
 142.2420000 144.0190000 135.2790000 138.5330000 141.1900000 135.5500000
 138.3238094 141.3574823 134.4934548 139.4910000 142.2550000 136.0510000
 138.9770569 143.2152377 136.0946499 139.8444982 141.9870941 137.0466735
 137.2930000 141.2100000 136.2670000 136.3410000 142.4620000 136.1560000
 135.3390000 142.4160000 137.2520000 135.7920000 142.5810000 134.7850000
 137.3720000 143.6450000 136.4270000 137.6880000 144.0060000 137.7810000
 138.5154677 143.3942985 138.1404698 136.8177340 143.8370098 138.4151766
 138.0800000 145.4710000 137.8580000 138.2268794 145.7591737 138.8989043
 139.3810000 145.6490000 137.2450000 139.4270000 146.8950000 136.5720000
 140.3037897 147.4494452 136.9065587 139.7020000 146.6370000 135.1300000
 139.4230000 145.5150000 134.3880000 138.9399481 144.6668743 134.8503265
 139.7970000 145.6010000 133.1280000 140.3510000 146.8770000 133.0350000
 140.9250000 147.5410000 131.9250000 141.0660000 147.1450000 130.7730000
 141.3770000 148.8220000 132.2740000 141.8074847 149.3681647 131.5554003
 141.2810000 149.3890000 133.5350000 141.7690000 150.6220000 133.6710000
 142.2113342 151.1828336 132.9569226 141.7073342 151.0325789 134.5917189
 140.7410000 148.7600000 134.5810000 140.2990000 147.5140000 134.2540000
 137.1730000 146.4330000 137.0920000 136.8414170 146.0161133 136.1410232
 138.1030000 147.6050000 136.8340000 137.5313823 148.4413679 136.4317051
 138.5772657 147.9056599 137.7682247 136.0180000 146.8260000 137.8430000
 134.9760000 147.8270000 137.2150000 134.1010000 148.3660000 138.2890000
 134.2760000 147.2030000 136.0680000 135.9450000 148.9770000 136.6930000
 136.3780000 150.0010000 137.6020000 137.2796989 149.6732064 138.1192915
 135.5945757 150.1913708 138.3355571 136.6730000 151.2850000 136.8510000
 136.9093072 152.0790743 137.5593108 137.8860000 151.1170000 136.0760000
 137.7730000 151.8190000 134.8500000 138.6052107 152.5019099 134.6792409
 137.9100000 150.8380000 133.7360000 137.6260000 149.5050000 133.7520000
 137.2062846 149.0516751 134.6378539 137.8480000 148.9090000 132.6250000
 138.3050000 149.9280000 131.8040000 138.7100000 149.9490000 130.4550000
 138.7240000 148.8640000 129.6690000 139.0249838 148.9404865 128.7079278
 138.4335709 147.9696273 130.0375746 139.1120000 151.1310000 129.9520000
 139.0950000 152.2030000 130.7310000 139.4108463 153.1567785 130.3348350
 138.7350000 152.3160000 131.9920000 138.3470000 151.1150000 132.4710000
 135.6250000 151.6960000 135.8170000 135.2241362 150.8382447 135.2769418
 136.4390000 152.5570000 134.8670000 135.7710433 153.0542195 134.1636468
 136.9895348 153.3061462 135.4360270 134.5320000 152.4220000 136.3900000
 133.3620000 152.9380000 135.4690000 132.5710000 153.9600000 136.2030000
 132.5890000 151.8000000 134.9190000 134.1870000 153.6400000 134.3030000
 134.6430000 154.9920000 134.4790000 135.6153596 154.9900136 134.9715575
 133.9309402 155.5385672 135.0973330 134.7660000 155.6860000 133.1350000
 135.0207556 156.7351997 133.2845955 135.8990000 155.1360000 132.4160000
 135.6080000 155.0840000 131.0300000 136.3791952 155.5726767 130.4345570
 135.6930000 153.6630000 130.5880000 135.4770000 152.6430000 131.4810000
 135.2082187 152.8640396 132.5033983 135.5470000 151.3640000 131.0970000
 135.3230000 150.2090000 132.0270000 134.3177461 150.2675278 132.4442992
 135.4343502 149.2735191 131.4787514 136.0538659 150.2452925 132.8348473
 135.8570000 151.0100000 129.7290000 135.9410000 149.8600000 129.2850000
 136.0520000 152.0990000 128.9070000 136.2904006 151.8876036 127.8646097
 135.9830000 153.4330000 129.2730000 136.1770000 154.3260000 128.4690000
 133.5890000 155.4850000 132.1830000 133.1938915 154.4701770 132.2290688
 134.2350000 155.7160000 130.8270000 133.4625696 155.7641774 130.0594523
 134.7894078 156.6543335 130.8432014 132.5150000 156.4020000 132.4230000
 131.2200000 156.3500000 131.5250000 130.4430000 157.6030000 131.7090000
 130.4740000 155.0910000 131.7560000 131.8660000 156.3320000 130.0700000
 132.2430000 157.5730000 129.4530000 133.2600716 157.8339384 129.7455348
 131.5644896 158.3617679 129.7779145 132.1740000 157.4520000 127.9410000
 132.3695831 158.4225186 127.4849955 133.2590000 156.6090000 127.4800000
 132.8270000 155.8320000 126.3770000 133.5296467 155.9584026 125.5533439
 132.9630000 154.3910000 126.7390000 132.9400000 153.8110000 127.9840000
 132.8092745 154.4229354 128.8642545 133.0900000 152.5020000 127.9660000
 133.2080000 152.2030000 126.6080000 133.3900000 150.9570000 125.9650000
 133.4840000 149.8370000 126.4560000 133.4720000 151.1070000 124.5730000
 133.6112290 150.2796308 124.0288732 133.3840000 152.3110000 123.8920000
 133.4860000 152.2520000 122.5650000 133.6319712 151.4257773 122.0027288
 133.4307100 153.1299719 122.0688051 133.2150000 153.4870000 124.5020000
 133.1340000 153.3530000 125.8540000 130.9190000 156.7750000 127.3940000
 130.6015814 155.9366122 128.0140404 131.4000000 156.2570000 126.0500000
 130.5493777 155.8890499 125.4762809 131.8856435 157.0641636 125.5016047
 129.8160000 157.6780000 127.2520000 128.4400000 157.1550000 126.6880000
 127.6010000 158.3140000 126.2850000 127.8120000 156.2060000 127.6380000
 128.9270000 156.3730000 125.3900000 129.1480000 157.1010000 124.1710000
 130.1693322 157.4812436 124.1511171 128.4539704 157.9397661 124.1171952
 128.9280000 156.2000000 122.9710000 129.0061218 156.7828951 122.0532693
 130.0140000 155.2430000 122.8870000 129.5210000 153.9990000 122.4200000
 130.1218946 153.6739452 121.5706683 129.7950000 152.9680000 123.4610000
 129.9450000 153.1330000 124.8180000 129.8659615 154.1173318 125.2553166
 130.1830000 152.0140000 125.4690000 130.1760000 151.0420000 124.4670000
 130.3750000 149.6450000 124.5560000 130.5970000 148.9530000 125.5440000
 130.2970000 149.0370000 123.2940000 130.4334007 148.0472285 123.2522181
 130.0540000 149.6980000 122.1010000 130.0180000 148.9470000 121.0010000
 130.1601702 147.9488234 120.9415749 129.8495207 149.4301502 120.1302064
 129.8690000 151.0180000 122.0200000 129.9420000 151.6190000 123.2390000
 127.6720000 155.3330000 123.0250000 127.4819854 154.9486334 124.0271255
 128.0410000 154.1830000 122.1030000 127.1612073 153.5657507 121.9211557
 128.4082633 154.5791319 121.1562702 126.5000000 156.0210000 122.5720000
 125.1110000 155.2750000 122.5460000 124.1560000 156.0440000 121.7050000
 124.6550000 154.9700000 123.9220000 125.5100000 153.9270000 121.8000000
 125.5500000 153.9020000 120.3650000 126.5349659 154.2164493 120.0199436
 124.7982600 154.5842524 119.9681131 125.2660000 152.5010000 119.8540000
 125.2054974 152.5119505 118.7657359 126.4000000 151.6470000 120.1460000
 125.9480000 150.3430000 120.4670000 126.4758427 149.6189510 119.8463275
 126.4020000 150.0200000 121.8490000 126.6840000 150.8760000 122.8860000
 126.5841484 151.9424463 122.7477106 127.0670000 150.2710000 123.9920000
 127.0210000 148.9170000 123.6580000 127.3240000 147.7770000 124.4390000
 127.6980000 147.7140000 125.6050000 127.1560000 146.5940000 123.7050000
 127.3543987 145.7315927 124.1707147 126.7420000 146.5250000 122.3830000
 126.6410000 145.3060000 121.8570000 126.8442857 144.4282693 122.3134691
 126.3480968 145.2539905 120.8918038 126.4580000 147.6020000 121.6480000
 126.6190000 148.7570000 122.3510000 124.0860000 151.7890000 120.5130000
 124.0305900 151.9915192 121.5825861 124.4340000 150.3280000 120.2920000
 123.5851217 149.7050966 120.5739507 124.6700194 150.1652360 119.2403808
 122.8270000 152.1320000 119.9200000 121.4990000 151.4810000 120.4650000
 120.4090000 151.6870000 119.4760000 121.2140000 151.9480000 121.8410000
 121.9090000 149.9430000 120.4930000 121.7970000 149.1630000 119.2920000
 122.7153211 149.2507715 118.7114119 120.9612392 149.5301260 118.6963298
 121.5590000 147.7040000 119.6310000 121.3823900 147.1377889 118.7164984
 122.7740000 147.1370000 120.1800000 122.4500000 146.1980000 121.1920000
 122.9290481 145.2344976 121.0180023 123.0710000 146.6560000 122.4680000
 123.3290000 147.9870000 122.6780000 123.0522378 148.7178226 121.9325463
 123.8810000 148.4110000 123.8200000 124.1890000 149.8510000 124.1050000
 123.2691245 150.4344469 124.0660351 124.6326055 149.9388152 125.0967674
 124.8894165 150.2276992 123.3596049 124.2290000 147.4810000 124.8720000
 124.7400000 147.7800000 125.9570000 123.9280000 146.1690000 124.5740000
 124.1721325 145.4259990 125.3332427 123.3540000 145.7000000 123.4040000
 123.1310000 144.5160000 123.2340000 120.5070000 147.4450000 120.7090000
 120.5520077 148.1824178 121.5104288 120.9310000 146.0880000 121.2450000
 120.1620376 145.7054439 121.9161533 121.0655444 145.3947047 120.4147352
 119.1720000 147.4180000 120.1910000 117.9580000 147.1510000 121.1590000
 116.7570000 146.7990000 120.3570000 117.7900000 148.2740000 122.1100000
 118.4740000 145.8610000 121.9350000 118.2900000 144.5640000 121.3480000
 119.1329722 144.3334840 120.6965706 117.3727130 144.5578969 120.7592319
 118.1900000 143.5030000 122.4290000 117.9564667 142.5379598 121.9792679
 119.4940000 143.3160000 123.0330000 119.3460000 143.0530000 124.4190000
 119.8695185 142.1443708 124.7163562 120.0650000 144.1170000 125.1750000
 120.2510000 145.3600000 124.6220000 119.8447538 145.5864517 123.6472775
 120.8910000 146.3240000 125.2910000 121.1270000 147.6980000 124.7370000
 120.1699425 148.1704796 124.5158586 121.6670884 148.2978478 125.4695211
 121.7156868 147.6254240 123.8225165 121.4130000 146.0930000 126.6210000
 122.0140000 146.9210000 127.3120000 121.1740000 144.8200000 127.0940000
 121.5503900 144.5914154 128.0910860 120.5120000 143.8010000 126.4280000
 120.3550000 142.7060000 126.9330000 117.2810000 143.8510000 123.6060000
 117.3595557 144.9002343 123.8906668 117.8520000 142.9820000 124.7130000
 117.1876683 143.0098322 125.5767059 117.9438070 141.9552421 124.3588250
 115.9030000 143.5510000 123.3520000 114.8200000 143.8320000 124.4610000
 113.5680000 143.1060000 124.1230000 114.6760000 145.2870000 124.6960000
 115.5040000 143.1490000 125.7260000 115.3490000 141.7370000 125.9350000
 116.1322840 141.1999911 125.4000350 114.3767409 141.4181431 125.5593097
 115.4390000 141.4080000 127.4130000 115.2267008 140.3501643 127.5679582
 116.8090000 141.5720000 127.8560000 116.8280000 142.0800000 129.1790000
 117.4422333 141.4669855 129.8385680 117.5480000 143.3850000 129.1670000
 117.5870000 144.1480000 128.0250000 117.0666688 143.8234894 127.1359845
 118.2260000 145.3220000 128.0030000 118.3060000 146.1960000 126.7860000
 117.3004033 146.4770907 126.4731696 118.8775352 147.0941609 127.0199968
 118.7982589 145.6525645 125.9794899 118.9020000 145.8290000 129.1780000
 119.5140000 146.9000000 129.2500000 118.8030000 144.9990000 130.2730000
 119.2988339 145.3324914 131.1846101 118.1460000 143.7810000 130.3300000
 118.1200000 143.1170000 131.3500000 114.6370000 142.3220000 128.3380000
 114.6716411 143.3632440 128.0175163 115.3820000 142.1720000 129.6530000
 114.8129260 142.6502587 130.4501967 115.5074583 141.1136152 129.8814337
 113.2650000 141.9290000 128.4560000 112.2890000 142.7510000 129.3820000
 111.0620000 141.9530000 129.6350000 112.0710000 144.1110000 128.8340000
 113.1500000 142.8430000 130.7170000 113.1160000 141.7530000 131.6530000
 113.8726432 141.0156248 131.3849162 112.1337250 141.2812581 131.6266164
 113.3850000 142.2550000 133.0590000 113.2646341 141.4386876 133.7712116
 114.7810000 142.6320000 133.1710000 114.9050000 143.7630000 134.0170000
 115.6424933 143.5494144 134.7906822 115.5270000 144.8660000 133.2320000
 115.5010000 145.0780000 131.8740000 114.9764753 144.3890450 131.2285414
 116.1550000 146.1540000 131.4890000 116.6340000 146.6940000 132.6830000
 117.4100000 147.8550000 132.9090000 117.8430000 148.6690000 132.0990000
 117.6850000 148.0280000 134.2730000 118.2352680 148.8212352 134.5337330
 117.2600000 147.1850000 135.2880000 117.6230000 147.5160000 136.5270000
 118.1839919 148.3086135 136.8047629 117.3209979 146.8973700 137.2660485
 116.5300000 146.0890000 135.0720000 116.2560000 145.9110000 133.7510000
 112.6260000 143.5180000 133.4610000 112.5545688 144.2320059 132.6405172
 113.5150000 144.0880000 134.5520000 113.0019597 144.9137157 135.0450340
 113.7375424 143.3107871 135.2831055 111.3040000 143.2440000 133.9410000
 110.3770000 144.4280000 134.4120000 109.2420000 143.8810000 135.2010000
 110.0080000 145.2920000 133.2670000 111.3670000 145.2140000 135.3810000
 111.5090000 144.7830000 136.7430000 112.2821448 144.0173172 136.8068519
 110.5648161 144.3656216 137.0928751 111.8910000 145.9530000 137.6310000
 111.9037812 145.6369598 138.6740985 113.2600000 146.3360000 137.3510000
 113.3950000 147.7430000 137.4550000 114.2204588 147.9799088 138.1262609
 113.8520000 148.2670000 136.1360000 113.5820000 147.5890000 134.9850000
 113.0395215 146.6558034 135.0205102 113.9850000 148.0680000 133.7860000
 113.7371623 147.5271208 132.8726948 114.7210000 149.3000000 133.7920000
 115.1500000 149.8260000 132.6500000 115.6642766 150.6940018 132.6968289
 114.9606435 149.3622097 131.7729914 114.9880000 149.9650000 134.9290000
 114.5570000 149.4600000 136.1200000 114.7790000 150.0340000 137.1980000
 111.0920000 147.2350000 137.4030000 110.8846863 147.4071633 136.3468373
 112.0500000 148.2990000 137.9110000 111.5360216 149.2590856 137.9574873
 112.4013210 148.0269733 138.9063267 109.8510000 147.2530000 138.1190000
 108.9000000 148.5050000 138.0140000 107.8960000 148.4540000 139.1090000
 108.3520000 148.6320000 136.6430000 109.9310000 149.6870000 138.2920000
 110.2460000 150.0410000 139.6480000 111.0729798 149.4271439 140.0049105
 109.3751802 149.8690301 140.2806134 110.6380000 151.5040000 139.7330000
 110.7832991 151.7856806 140.7759015 111.9400000 151.6860000 139.1230000
 111.9870000 152.9350000 138.4560000 112.8639354 153.4864075 138.7951657
 112.2640000 152.6850000 137.0130000 111.9850000 151.5660000 136.2640000
 111.5011259 150.7158585 136.7217415 112.3600000 151.6580000 135.0050000
 112.9150000 152.9360000 134.9200000 113.4910000 153.6040000 133.8140000
 113.6330000 153.2140000 132.6600000 113.9430000 154.8840000 134.1690000
 114.3753196 155.4340329 133.4544636 113.8450000 155.4440000 135.4340000
 114.3340000 156.6750000 135.5770000 114.7781787 157.2389261 134.8665122
 114.2713321 157.0809537 136.4997000 113.3040000 154.8100000 136.4760000
 112.8610000 153.5660000 136.1420000 109.7330000 152.4710000 138.9710000
 109.4029850 152.0584995 138.0175682 110.6630000 153.6440000 138.7200000
 110.0916657 154.4826356 138.3220468 111.1368345 153.9394482 139.6561044
 108.5770000 152.8610000 139.7220000 107.5350000 153.8660000 139.0990000
 106.6600000 154.3990000 140.1750000 106.8370000 153.2480000 137.9470000
 108.5050000 155.0180000 138.5830000 108.9380000 156.0370000 139.4990000
 109.8390770 155.7068705 140.0158896 108.1541102 156.2232863 140.2331081
 109.2340000 157.3260000 138.7540000 109.4702211 158.1176907 139.4650026
 110.4480000 157.1590000 137.9800000 110.3370000 157.8690000 136.7570000
 111.2006453 158.5230254 136.6367224 110.4750000 156.8940000 135.6380000
 110.1550000 155.5810000 135.8150000 109.8049430 155.2331864 136.7756694
 110.2690000 154.6950000 134.7980000 109.9849763 153.6535518 134.9490515
 110.7570000 155.2010000 133.5460000 110.8950000 154.3870000 132.5060000
 111.2412827 154.7819902 131.6433462 110.6577246 153.4088704 132.5900498
 111.0740000 156.4960000 133.3770000 110.9370000 157.3640000 134.4200000
 111.2180000 158.5690000 134.3150000 108.1880000 157.7410000 137.7210000
 107.7879855 156.8857936 137.1762899 109.0030000 158.6070000 136.7760000
 108.3357477 159.1072240 136.0741100 109.5524236 159.3537073 137.3492906
 107.0940000 158.4650000 138.2960000 105.9250000 158.9860000 137.3760000
 105.1340000 160.0040000 138.1150000 105.1530000 157.8510000 136.8200000
 106.7520000 159.6950000 136.2160000 107.2080000 161.0440000 136.3980000
 108.1796088 161.0392002 136.8920176 106.4957788 161.5882815 137.0181606
 107.3330000 161.7450000 135.0590000 107.5879181 162.7932612 135.2147710
 108.4660000 161.1990000 134.3380000 108.1770000 161.1540000 132.9520000
 108.9796277 161.6466504 132.4031981 108.2620000 159.7350000 132.5030000
 108.0780000 158.5870000 133.2360000 107.8366426 158.6490964 134.2868533
 108.2260000 157.4790000 132.5400000 108.5170000 157.9350000 131.2530000
 108.7770000 157.2070000 130.0680000 108.8040000 155.9930000 129.8940000
 109.0370000 158.0640000 128.9890000 109.2414071 157.6418099 128.1058399
 109.0400000 159.4490000 129.0500000 109.3110000 160.0930000 127.9140000
 109.5253300 159.6801623 127.0174912 109.3221221 161.1019368 127.9589874
 108.7960000 160.1330000 130.1700000 108.5430000 159.3110000 131.2250000
 106.1560000 161.5490000 134.1030000 105.7593665 160.5344935 134.1424624
 106.8040000 161.7870000 132.7500000 106.0329982 161.8376463 131.9811760
 107.3570799 162.7260082 132.7715939 105.0830000 162.4660000 134.3470000
 103.7890000 162.4180000 133.4490000 103.0120000 163.6710000 133.6370000
 103.0430000 161.1590000 133.6720000 104.4370000 162.4080000 131.9930000
 104.8150000 163.6520000 131.3820000 105.8317064 163.9113713 131.6771859
 104.1362874 164.4394033 131.7097894 104.7480000 163.5390000 129.8710000
 104.9444834 164.5117251 129.4201126 105.8330000 162.6980000 129.4070000
 105.4010000 161.9260000 128.3000000 106.0997307 162.0553012 127.4734675
 105.5370000 160.4840000 128.6540000 105.4950000 160.0790000 129.9540000
 105.3708574 160.8056815 130.7432544 105.6070000 158.7700000 130.2790000
 105.5470650 158.4599779 131.3222614 105.7890000 157.8460000 129.1960000
 105.9080000 156.5470000 129.4420000 106.0346944 155.9294068 128.6529324
 105.8711138 156.2030630 130.3909195 105.8320000 158.2490000 127.9150000
 105.7060000 159.5750000 127.6220000 105.7400000 159.9980000 126.4550000
 103.4930000 162.8650000 129.3190000 103.1755115 162.0238123 129.9352006
 103.9750000 162.3530000 127.9730000 103.1245761 161.9892342 127.3963260
 104.4625935 163.1621630 127.4293016 102.3900000 163.7680000 129.1800000
 101.0140000 163.2500000 128.6130000 100.1770000 164.4110000 128.2140000
 100.3850000 162.2970000 129.5560000 101.5030000 162.4740000 127.3110000
 101.7260000 163.2080000 126.0960000 102.7478380 163.5870580 126.0798086
 101.0325206 164.0474280 126.0455264 101.5070000 162.3130000 124.8910000
 101.5866453 162.9013258 123.9768727 102.5920000 161.3570000 124.8030000
 102.1000000 160.1150000 124.3300000 102.6657458 159.7564678 123.4700665
 102.3720000 159.0790000 125.3660000 102.4890000 159.4320000 126.6880000
 102.3511942 160.4593892 126.9911193 102.7290000 158.5110000 127.6280000
 102.8710000 158.8370000 129.0860000 101.9517026 159.2982242 129.4469211
 103.0621315 157.9219057 129.6465097 103.7024484 159.5279861 129.2250366
 102.8780000 157.1130000 127.2860000 103.0990000 156.1970000 128.0840000
 102.7390000 156.8560000 125.9390000 102.8435445 155.8169180 125.6267824
 102.4870000 157.7850000 124.9420000 102.3850000 157.4560000 123.7750000
 100.2500000 161.4460000 124.9380000 100.0586074 161.0571166 125.9381187
 100.6200000 160.3010000 124.0120000  99.7402000 159.6852221 123.8252685
 100.9896158 160.7014031 123.0679864  99.0790000 162.1370000 124.4880000
  97.6900000 161.3930000 124.4570000  96.7360000 162.1660000 123.6180000
  97.2320000 161.0800000 125.8310000  98.0890000 160.0470000 123.7040000
  98.1310000 160.0290000 122.2690000  99.1160953 160.3452865 121.9259983
  97.3803148 160.7137388 121.8744052  97.8470000 158.6320000 121.7500000
  97.7878220 158.6474644 120.6617178  98.9810000 157.7760000 122.0400000
  98.5280000 156.4710000 122.3540000  99.0558497 155.7501593 121.7296102
  98.9800000 156.1390000 123.7350000  99.2610000 156.9910000 124.7760000
  99.1621911 158.0582438 124.6432237  99.6420000 156.3800000 125.8790000
  99.5960000 155.0270000 125.5380000  99.8980000 153.8830000 126.3140000
 100.2710000 153.8140000 127.4810000  99.7300000 152.7040000 125.5740000
  99.9274613 151.8391332 126.0355334  99.3180000 152.6420000 124.2520000
  99.2170000 151.4260000 123.7170000  99.4193225 150.5449913 124.1675437
  98.9252387 151.3809036 122.7511105  99.0350000 153.7240000 123.5210000
  99.1950000 154.8740000 124.2300000  96.6660000 157.9170000 122.4050000
  96.6092563 158.1141898 123.4755116  97.0140000 156.4560000 122.1770000
  96.1648599 155.8319481 122.4556030  97.2504319 156.2982191 121.1247142
  95.4080000 158.2630000 121.8120000  94.0790000 157.6100000 122.3520000
  92.9900000 157.8210000 121.3620000  93.7930000 158.0700000 123.7310000
  94.4880000 156.0720000 122.3720000  94.3780000 155.2980000 121.1670000
  95.2981372 155.3874183 120.5895470  93.5438275 155.6687044 120.5713196
  94.1380000 153.8370000 121.5000000  93.9620538 153.2756190 120.5823979
  95.3530000 153.2670000 122.0470000  95.0280000 152.3220000 123.0540000
  95.5369749 151.3824415 122.8388871  95.6460000 152.7730000 124.3320000
  95.9760000 154.0470000 124.7280000  95.7882285 154.8828204 124.0703161
  96.5150000 154.1120000 125.9280000  96.5260000 152.7830000 126.3560000
  96.9880000 152.2230000 127.5700000  97.4870000 152.7820000 128.5420000
  96.8240000 150.8310000 127.5850000  97.1301044 150.3419924 128.4018049
  96.2790000 150.0780000 126.5580000  96.2060000 148.7630000 126.7580000
  96.5158276 148.2540884 127.5735465  95.8166355 148.2131653 126.0055520
  95.8460000 150.6090000 125.4110000  96.0000000 151.9610000 125.3850000
  93.0860000 153.5730000 122.5740000  93.1305240 154.3059595 123.3795351
  93.5080000 152.2130000 123.1030000  92.7374822 151.8271344 123.7704648
  93.6437330 151.5243430 122.2690765  91.7510000 153.5490000 122.0540000
  90.5350000 153.2770000 123.0200000  89.3360000 152.9300000 122.2150000
  90.3660000 154.3960000 123.9770000  91.0510000 151.9830000 123.7910000
  90.8660000 150.6890000 123.1950000  91.7097815 150.4614065 122.5435907
  89.9489527 150.6875205 122.6058288  90.7650000 149.6230000 124.2720000
  90.5316743 148.6605694 123.8166037  92.0680000 149.4320000 124.8770000
  91.9180000 149.1620000 126.2610000  92.4298568 148.2497010 126.5672882
  92.6370000 150.2220000 127.0230000  92.9040000 151.5020000 126.6330000
  92.5402443 151.8670089 125.6838678  93.5490000 152.1930000 127.5170000
  93.7120000 151.3060000 128.5690000  94.3200000 151.4340000 129.8330000
  94.9070000 152.5600000 130.2610000  95.3273595 152.5929908 131.1787749
  94.9290789 153.3757040 129.6658208  94.3090000 150.3520000 130.6340000
  93.7250000 149.2400000 130.2090000  93.7072324 148.3683963 130.8464875
  93.1210000 148.9960000 129.0660000  93.1570000 150.0950000 128.2800000
  89.8540000 149.9650000 125.4490000  89.9324009 151.0129899 125.7382563
  90.4240000 149.0910000 126.5530000  89.7585992 149.1147561 127.4160044
  90.5165318 148.0658740 126.1943152  88.4770000 149.6670000 125.1920000
  87.3920000 149.9420000 126.3030000  86.1410000 149.2190000 125.9580000
  87.2490000 151.3970000 126.5440000  88.0750000 149.2530000 127.5640000
  87.9190000 147.8390000 127.7640000  88.7024531 147.3036879 127.2275838
  86.9471989 147.5229207 127.3847940  88.0070000 147.5030000 129.2420000
  87.7944285 146.4445515 129.3923308  89.3770000 147.6650000 129.6870000
  89.3950000 148.1650000 131.0120000  90.0074896 147.5487117 131.6701371
  90.1150000 149.4710000 131.0090000  90.1560000 150.2390000 129.8710000
  89.6395724 149.9175506 128.9786026  90.7950000 151.4140000 129.8560000
  90.8770000 152.2930000 128.6430000  89.8718926 152.5748705 128.3292999
  91.4475805 153.1904733 128.8819133  91.3711875 151.7531993 127.8352294
  91.4700000 151.9140000 131.0330000  92.0820000 152.9840000 131.1100000
  91.3690000 151.0780000 132.1250000  91.8619624 151.4070566 133.0397735
  90.7120000 149.8600000 132.1740000  90.6850000 149.1910000 133.1910000
  87.2050000 148.4130000 130.1700000  87.2408194 149.4555474 129.8539136
  87.9480000 148.2570000 131.4860000  87.3782882 148.7329411 132.2841276
  88.0717668 147.1975950 131.7105951  85.8330000 148.0200000 130.2860000
  84.8560000 148.8390000 131.2140000  83.6280000 148.0390000 131.4620000
  84.6390000 150.2010000 130.6730000  85.7150000 148.9220000 132.5510000
  85.6800000 147.8270000 133.4810000  86.4365589 147.0906242 133.2099477
  84.6976612 147.3555934 133.4512186  85.9480000 148.3220000 134.8900000
  85.8266094 147.5030236 135.5989720  87.3430000 148.6980000 135.0050000
  87.4660000 149.8240000 135.8580000  88.1992668 149.6120675 136.6361412
  88.0900000 150.9320000 135.0780000  87.9680000 150.9850000 133.7230000
  87.4225412 150.2147608 133.1980180  88.5230000 151.9950000 133.0140000
  88.3934459 152.0359293 131.9325006  89.2550000 152.9840000 133.7540000
  89.8270000 154.0010000 133.1230000  90.3325807 154.6747661 133.6802504
  89.7508444 154.0852086 132.1194011  89.3750000 152.9270000 135.0920000
  88.7940000 151.9000000 135.7760000  88.8770000 151.8030000 137.0110000
  85.1880000 149.5840000 135.2960000  85.1171982 150.3029512 134.4797922
  86.0760000 150.1480000 136.3920000  85.5637187 150.9731473 136.8867718
  86.2946949 149.3675149 137.1207768  83.8660000 149.3070000 135.7740000
  82.9390000 150.4900000 136.2510000  81.8030000 149.9390000 137.0350000
  82.5710000 151.3600000 135.1090000  83.9280000 151.2700000 137.2250000
  84.0680000 150.8310000 138.5850000  84.8423412 150.0662120 138.6449586
  83.1232387 150.4117861 138.9311016  84.4490000 151.9980000 139.4780000
  84.4600402 151.6757850 140.5192276  85.8190000 152.3810000 139.2020000
  85.9540000 153.7890000 139.3130000  86.7785131 154.0222795 139.9866899
  86.4130000 154.3190000 137.9980000  86.1440000 153.6470000 136.8440000
  85.6005420 152.7142081 136.8748623  86.5490000 154.1310000 135.6470000
  86.3022297 153.5939376 134.7311569  87.2850000 155.3630000 135.6590000
  87.7150000 155.8950000 134.5220000  88.2290885 156.7627859 134.5745467
  87.5269269 155.4362484 133.6420699  87.5500000 156.0220000 136.8010000
  87.1180000 155.5110000 137.9890000  87.3390000 156.0810000 139.0690000
  83.6510000 153.2810000 139.2570000  83.4445182 153.4585461 138.2015658
  84.6090000 154.3420000 139.7710000  84.0950305 155.3018046 139.8230553
  84.9604082 154.0642505 140.7647141  82.4100000 153.2960000 139.9720000
  81.4590000 154.5480000 139.8710000  80.4540000 154.4930000 140.9640000
  80.9130000 154.6820000 138.5010000  82.4900000 155.7280000 140.1570000
  82.8040000 156.0760000 141.5150000  83.6304516 155.4603390 141.8700203
  81.9327424 155.9010657 142.1461963  83.1960000 157.5390000 141.6080000
  83.3412324 157.8162248 142.6521041  84.4990000 157.7220000 140.9990000
  84.5470000 158.9760000 140.3390000  85.3960510 159.5830441 140.6531801
  84.8250000 158.7320000 138.8960000  84.5380000 157.6180000 138.1620000
  84.0059924 156.7937260 138.6135992  84.9030000 157.7000000 136.9240000
  85.4640000 158.9640000 136.8320000  86.0400000 159.6720000 135.7590000
  86.1530000 159.1740000 134.5200000  86.5756690 159.7286753 133.7893923
  85.8154972 158.2439977 134.3168096  86.5070000 160.9090000 136.0160000
  86.3920000 161.3990000 137.2430000  86.7602886 162.3910769 137.4587451
  85.8710000 160.8490000 138.3190000  85.4220000 159.6070000 138.0330000
  82.2920000 158.5100000 140.8500000  81.9627058 158.1026574 139.8941045
  83.2230000 159.6840000 140.6060000  82.6524560 160.5250631 140.2120563
  83.6962158 159.9741847 141.5440618  81.1350000 158.8960000 141.6020000
  90.6843243 165.2027979 128.0441299  92.0822029 165.3453981 127.5793710
  89.9557216 163.9808032 127.6363697  90.7450000 165.3720000 129.6340000
  90.9300000 166.6840000 130.1880000  90.1132530 167.3334925 129.8730652
  91.8757252 167.0906763 129.8297839  90.9580000 166.6170000 131.7040000
  91.1924687 167.6004194 132.1114434  89.6240000 166.3300000 132.1930000
  89.7020000 165.4960000 133.3360000  89.1476509 165.9101566 134.1781821
  88.9700000 164.2310000 133.0420000  88.8350000 163.7900000 131.7490000
  89.2893308 164.3398030 130.9380127  88.1840000 162.6550000 131.4710000
  88.0020000 162.1260000 130.0780000  88.9777536 161.9459470 129.6267957
  87.4409556 161.1921665 130.1138351  87.4549507 162.8552261 129.4804502
  87.5960000 161.8540000 132.5220000  86.9810000 160.7950000 132.3610000
  87.7880000 162.3730000 133.7850000  87.3635652 161.8076983 134.6146926
  88.4590000 163.5420000 134.1050000  88.5700000 163.9170000 135.2570000
  91.8190000 165.5020000 132.2960000  91.7488049 164.5795629 131.7195616
  91.1790000 165.2980000 133.6570000  91.8025513 164.6348270 134.2565703
  91.0823033 166.2594265 134.1613898  93.2000000 165.8640000 132.4060000
  94.2360000 164.8400000 133.0080000  95.4870000 165.5580000 133.3650000
  94.3980000 163.6720000 132.1120000  93.4790000 164.3970000 134.3370000
  93.5960000 165.2080000 135.5170000  92.8282133 165.9816418 135.5079449
  94.5782415 165.6800762 135.5381269  93.4300000 164.3550000 136.7610000
  93.6130394 164.9601388 137.6489206  92.0440000 163.9470000 136.8790000
  91.9740000 162.6350000 137.4090000  91.3013576 162.6319232 138.2666957
  91.2820000 161.7660000 136.4150000  91.2010000 161.9150000 135.0520000
  91.6804398 162.7538921 134.5695069  90.5090000 160.9690000 134.4520000
  90.1180000 160.1320000 135.4980000  89.3500000 158.9440000 135.4730000
  88.8480000 158.3650000 134.5170000  89.1780000 158.4210000 136.7640000
  88.6396973 157.5828517 136.8519553  89.6890000 158.9760000 137.9270000
  89.4180000 158.3310000 139.0610000  88.8711545 157.4882632 139.1651872
  89.7822494 158.7389047 139.9101391  90.4120000 160.0980000 137.9470000
  90.5850000 160.6160000 136.7000000  94.2060000 163.0390000 136.7620000
  94.2069467 162.5631028 135.7813779  93.3980000 162.1960000 137.7330000
  93.9393665 161.2761009 137.9539233  93.2400994 162.7545521 138.6555981
  95.5630000 163.1930000 137.1930000  96.5110000 161.9360000 137.2700000
  97.7090000 162.2710000 138.0820000  96.7830000 161.4020000 135.9140000
  95.5910000 160.9160000 138.0740000  95.5590000 160.9770000 139.5090000
  94.8008529 161.6917471 139.8290775  96.5315739 161.2988893 139.8812739
  95.2350000 159.6130000 140.0890000  95.3054107 159.6479793 141.1761606
  93.8440000 159.3010000 139.8250000  93.7030000 157.9140000 139.5700000
  92.9263111 157.5091124 140.2187832  93.1410000 157.7460000 138.2000000
  93.2340000 158.5920000 137.1210000  93.7737086 159.5233056 137.2092405
  92.6210000 158.1520000 136.0420000  92.0980000 156.9200000 136.4400000
  91.3360000 155.9780000 135.7100000  90.9580000 156.0220000 134.5440000
  91.0010000 154.8690000 136.5020000  90.4546464 154.1480805 136.0756535
  91.3610000 154.6960000 137.8280000  90.9470000 153.5730000 138.4140000
  90.3895755 152.8403783 137.9984959  91.2015231 153.4497748 139.3836053
  92.0780000 155.5880000 138.5160000  92.4100000 156.6690000 137.7570000
  96.0010000 158.4420000 139.4760000  96.1252018 158.5512834 138.3986283
  95.0730000 157.2730000 139.7630000  95.5790955 156.3386036 139.5203687
  94.8011354 157.2748956 140.8185502  97.2920000 158.2520000 140.0650000
  98.2200000 157.0790000 139.5660000  99.3050000 156.8540000 140.5550000
  98.6590000 157.3170000 138.1710000  97.2020000 155.8560000 139.6060000
  96.9880000 155.1590000 140.8440000  96.1974275 155.6506438 141.4109052
  97.9062476 155.1700238 141.4311970  96.5890000 153.7190000 140.5770000
  96.5209536 153.1743785 141.5187306  95.2420000 153.6890000 140.0420000
  95.1310000 152.6550000 139.0790000  94.3024392 151.9772323 139.2844683
  94.7470000 153.2690000 137.7760000  94.9890000 154.5400000 137.3440000
  95.5613222 155.2213995 137.9559997  94.5310000 154.7840000 136.1590000
  93.9510000 153.5830000 135.7790000  93.2880000 153.1790000 134.6050000
  93.0870000 153.9850000 133.5530000  92.6038705 153.6386264 132.7364754
  93.4186760 154.9386881 133.5768497  92.8300000 151.9130000 134.5600000
  93.0330000 151.1170000 135.6020000  92.6723165 150.0993744 135.5747137
  93.6390000 151.3680000 136.7420000  94.0770000 152.6460000 136.7610000
  97.4230000 152.9920000 139.5220000  97.6830942 153.6406407 138.6855103
  96.4640000 151.9150000 139.0480000  96.9940236 151.2140041 138.4031909
  96.0608217 151.3821590 139.9091782  98.6290000 152.4330000 140.0550000
  99.6090000 151.6350000 139.1150000 100.5600000 150.8510000 139.9450000
 100.2230000 152.5370000 138.1120000  98.5910000 150.6460000 138.3940000
  98.2200000 149.4200000 139.0440000  97.3647317 149.5964872 139.6962794
  99.0565318 149.0572150 139.6412455  97.8540000 148.3670000 138.0160000
  97.6655035 147.4164302 138.5149844  96.5860000 148.7150000 137.4070000
  96.5960000 148.3480000 136.0370000  95.7367217 147.7298287 135.7769917
  96.3820000 149.5790000 135.2240000  96.7400000 150.8100000 135.7160000
  97.2109953 150.8919922 136.6844219  96.5570000 151.9210000 134.9940000
  96.9250000 153.2920000 135.4820000  97.9939279 153.3286606 135.6921157
  96.6802129 154.0284954 134.7166545  96.3684628 153.5158097 136.3920962
  95.9720000 151.8670000 133.6720000  95.7670000 152.8370000 132.9370000
  95.6510000 150.5900000 133.2620000  95.2044888 150.4926582 132.2724279
  95.8310000 149.4210000 133.9830000  95.5080000 148.3380000 133.5310000
  98.8140000 148.2430000 136.8330000  99.1800367 149.2140033 136.4994306
  97.9200000 147.6440000 135.7620000  98.5260346 147.3487160 134.9054788
  97.4078711 146.7693021 136.1629086  99.9410000 147.4060000 137.1150000
 101.0300000 147.1540000 136.0050000 101.8660000 145.9860000 136.3910000
 101.7690000 148.4010000 135.7030000 100.1090000 146.7620000 134.7660000
  99.6550000 145.4060000 134.6280000  98.7241441 145.2730689 135.1793044
 100.4079301 144.7275977 135.0292071  99.4200000 145.0760000 133.1650000
  99.1675483 144.0206364 133.0621645  98.2410000 145.7780000 132.7010000
  98.4230000 146.1840000 131.3550000  97.5791303 145.8430406 130.7552252
  98.3180000 147.6710000 131.2980000  98.6030000 148.4320000 132.3910000
  98.9009013 147.9611804 133.3161938  98.5190000 149.7820000 132.3390000
  98.7766379 150.3783280 133.2142805  98.0990000 150.3590000 131.0930000
  97.9930000 151.6770000 130.9720000  97.6945866 152.0440518 130.0796307
  98.2068814 152.2789195 131.7543357  97.8170000 149.6050000 130.0170000
  97.9220000 148.2470000 130.1010000  97.6720000 147.5070000 129.1370000
 100.5220000 145.5250000 132.2060000 100.9299676 146.4988196 132.4768074
  99.7700000 145.6390000 130.8920000 100.4791997 145.7963910 130.0793728
  99.2101992 144.7211528 130.7123343 101.6020000 144.5880000 132.1210000
 102.8230000 144.8790000 131.1680000 103.5990000 143.6290000 130.9650000
 103.5970000 146.0460000 131.6530000 102.0650000 145.2600000 129.8200000
 101.6290000 144.2130000 128.9380000 100.6353684 143.8755549 129.2328341
 102.3231606 143.3747108 128.9972699 101.5810000 144.7150000 127.5080000
 101.3403720 143.8900866 126.8373917 100.4720000 145.6370000 127.3620000
 100.8250000 146.6740000 126.4630000 100.0628629 146.7558286 125.6880482
 100.7310000 147.9730000 127.1880000 100.8770000 148.0270000 128.5410000
 101.0537880 147.1217813 129.1028942 100.8040000 149.2060000 129.2020000
 100.9493497 149.2348383 130.2818806 100.5480000 150.3780000 128.4140000
 100.4620000 151.5670000 128.9970000 100.2807911 152.3669003 128.4075737
 100.5760853 151.6532291 129.9968253 100.4030000 150.3210000 127.0790000
 100.4930000 149.1170000 126.4440000 100.3650000 149.0110000 125.2140000
 102.7970000 145.5220000 127.0540000 103.1699923 146.1776451 127.8408323
 102.2180000 146.3610000 125.9280000 103.0251608 146.8708906 125.4020701
 101.6821356 145.7156978 125.2319148 103.8760000 144.6970000 126.6010000
 105.2090000 145.3590000 126.0840000 106.0010000 144.3500000 125.3340000
 105.9190000 146.0420000 127.1910000 104.6300000 146.4400000 125.0690000
 104.3070000 146.0440000 123.7270000 103.2835788 145.6706685 123.6904942
 104.9858260 145.2532473 123.4076163 104.4420000 147.2230000 122.7810000
 104.2868166 146.8918130 121.7541930 103.3620000 148.1590000 123.0280000
 103.8300000 149.4870000 122.8570000 103.2163955 150.0598275 122.1616890
 103.6480000 150.2160000 124.1440000 103.6090000 149.6950000 125.4060000
 103.7650540 148.6377138 125.5615461 103.4380000 150.5820000 126.3310000
 103.3670000 151.7760000 125.6290000 103.1990000 153.1120000 126.0440000
 103.0600000 153.4770000 127.3250000 102.9426413 154.4516368 127.5625106
 103.0725277 152.7776372 128.0535832 103.1680000 154.0550000 125.0830000
 103.3080000 153.6900000 123.8160000 103.2880105 154.4397997 123.0389544
 103.4790000 152.4900000 123.3040000 103.4960000 151.5650000 124.2890000
 105.7070000 148.0620000 122.9560000 105.9791156 148.1809291 124.0047649
 105.2780000 149.4040000 122.3890000 106.1465933 150.0567799 122.3022629
 104.8342179 149.2578237 121.4042208 106.8330000 147.5230000 122.2530000
 108.2230000 148.2640000 122.3090000 109.1010000 147.7450000 121.2280000
 108.7880000 148.2140000 123.6780000 107.7800000 149.7540000 121.9650000
 107.6290000 150.1450000 120.5900000 106.6167996 149.9187908 120.2547690
 108.3408252 149.5944891 119.9749039 107.8860000 151.6310000 120.4320000
 107.8614824 151.8979594 119.3754817 106.7870000 152.3710000 121.0190000
 107.2760000 153.5550000 121.6260000 106.7076436 154.4069402 121.2528135
 106.9340000 153.5110000 123.0770000 106.7260000 152.4160000 123.8800000
 106.8041862 151.4203721 123.4688869 106.4370000 152.7170000 125.1280000
 106.4700000 154.1120000 125.1480000 106.2400000 155.0120000 126.2150000
 105.9590000 154.7720000 127.3840000 106.3630000 156.3440000 125.7940000
 106.2097368 157.0574552 126.4777329 106.6730000 156.7510000 124.5060000
 106.7450000 158.0650000 124.3000000 106.5868018 158.7962045 124.9785379
 106.9622502 158.3630006 123.3597346 106.8870000 155.9000000 123.5010000
 106.7710000 154.6030000 123.8970000 109.1220000 152.1630000 121.1560000
 109.2585596 151.6955877 122.1311800 108.7720000 153.6300000 121.3420000
 109.6467858 154.1695939 121.7048876 108.4550953 154.0521987 120.3883649
 110.3260000 151.9960000 120.4000000 111.7000000 152.4990000 120.9860000
 112.7070000 152.5640000 119.8960000 112.0860000 151.7010000 122.1720000
 111.3090000 153.9750000 121.4360000 111.3340000 155.0370000 120.4680000
 110.3720247 155.0908277 119.9582882 112.1165245 154.8424624 119.7345758
 111.6130000 156.3650000 121.1490000 111.7242454 157.1478077 120.3987094
 110.4500000 156.7610000 121.9170000 110.8610000 157.4150000 123.1060000
 110.3518604 158.3755011 123.1854594 110.3380000 156.6420000 124.2680000
 110.0760000 155.3090000 124.1580000 110.2376891 154.8010861 123.2187024
 109.6120000 154.6020000 125.2150000 109.4332767 153.5311717 125.1176089
 109.3940000 155.3250000 126.4350000 108.9380000 154.6950000 127.5110000
 108.7979966 155.2397406 128.3499024 108.7424017 153.7047218 127.4764769
 109.6520000 156.6400000 126.5400000 110.1290000 157.3190000 125.4580000
 110.3810000 158.5350000 125.5030000 112.7480000 156.3500000 122.1720000
 112.7591608 155.4333356 122.7616614 112.3810000 157.5230000 123.0660000
 113.2029736 157.7291133 123.7515479 112.1914433 158.4032677 122.4517548
 114.0390000 156.5220000 121.5740000 115.3280000 156.5470000 122.4800000
 116.4660000 157.1030000 121.7030000 115.5580000 155.2200000 123.0990000
 114.8870000 157.5910000 123.5980000 115.0380000 158.9970000 123.3470000
 114.1496651 159.3773854 122.8427499 115.9069207 159.1615950 122.7098297
 115.2320000 159.7490000 124.6510000 115.4392130 160.7990089 124.4444970
 113.9820000 159.7630000 125.3840000 114.2400000 159.6660000 126.7740000
 113.7239588 160.4752514 127.2906362 113.5720000 158.4370000 127.2880000
 113.2490000 157.2850000 126.6130000 113.4824456 157.1897677 125.5628400
 112.6570000 156.3760000 127.3600000 112.5980000 156.9710000 128.6190000
 112.0690000 156.4770000 129.8350000 111.5370000 155.3960000 130.0660000
 112.2040000 157.4140000 130.8690000 111.8511715 157.1582276 131.7690506
 112.7810000 158.6670000 130.7430000 112.8180000 159.4180000 131.8440000
 112.4603752 159.1761118 132.7570689 113.2306739 160.3351285 131.7508527
 113.2780000 159.1330000 129.5950000 113.1520000 158.2300000 128.5830000
 116.2270000 159.1220000 125.6260000 116.1604288 158.0341119 125.6389047
 115.7530000 159.6740000 126.9590000 116.4822577 159.4332778 127.7325213
 115.6445039 160.7561815 126.8868061 117.5840000 159.4910000 125.3500000
 118.7470000 158.9470000 126.2640000 119.9760000 159.7490000 126.0240000
 118.8940000 157.4820000 126.1080000 118.1710000 159.2800000 127.7100000
 118.3560000 160.5940000 128.2580000 117.5390527 161.2418379 127.9401900
 119.2990704 161.0077131 127.9008441 118.3850000 160.5350000 129.7740000
 118.6197639 161.5203535 130.1765713 117.0520000 160.2500000 130.2660000
 117.1320000 159.4210000 131.4130000 116.5611005 159.8700257 132.2257416
 116.4000000 158.1550000 131.1260000 116.2540000 157.7090000 129.8460000
 116.6620639 158.2778074 129.0236000 115.6000000 156.5540000 129.5840000
 115.5130756 156.1996745 128.5568691 115.0580000 155.8430000 130.7070000
 114.4020000 154.7040000 130.5210000 114.0360576 154.2343423 131.3368483
 114.2810607 154.3323670 129.5896762 115.2010000 156.2880000 131.9670000
 115.8760000 157.4510000 132.1980000 116.0340000 157.9040000 133.3430000
 119.2470000 159.4230000 130.3700000 119.1759761 158.4975028 129.7985900
 118.6090000 159.2260000 131.7340000 119.2339573 158.5665249 132.3361795
 118.5125463 160.1901349 132.2332401 120.6290000 159.7860000 130.4780000
 121.6650000 158.7660000 131.0840000 122.9170000 159.4860000 131.4350000
 121.8270000 157.5930000 130.1930000 120.9100000 158.3290000 132.4160000
 121.0280000 159.1460000 133.5910000 120.2599094 159.9193039 133.5792602
 122.0097769 159.6192066 133.6080399 120.8650000 158.3000000 134.8400000
 121.0489618 158.9098992 135.7244662 119.4790000 157.8920000 134.9620000
 119.4100000 156.5830000 135.4990000 118.7378492 156.5848056 136.3570847
 118.7170000 155.7090000 134.5100000 118.6340000 155.8500000 133.1450000
 119.1122370 156.6865579 132.6572888 117.9420000 154.9000000 132.5510000
 117.5520000 154.0690000 133.6020000 116.7850000 152.8810000 133.5850000
 116.2810000 152.2960000 132.6320000 116.6150000 152.3640000 134.8780000
 116.0790057 151.5248548 134.9704339 117.1260000 152.9250000 136.0370000
 116.8570000 152.2850000 137.1750000 116.3114731 151.4420139 137.2839735
 117.2215588 152.6976601 138.0217050 117.8490000 154.0480000 136.0500000
 118.0200000 154.5590000 134.8000000 121.6410000 156.9840000 134.8470000
 121.6404686 156.5034447 133.8686519 120.8340000 156.1460000 135.8230000
 121.3757792 155.2274300 136.0483968 120.6766347 156.7093968 136.7427393
 122.9980000 157.1390000 135.2760000 123.9470000 155.8840000 135.3570000
 125.1450000 156.2240000 136.1670000 124.2170000 155.3440000 134.0050000
 123.0280000 154.8680000 136.1680000 122.9970000 154.9360000 137.6020000
 122.2388926 155.6522575 137.9187783 123.9697019 155.2601142 137.9720021
 122.6740000 153.5750000 138.1900000 122.7455288 153.6152457 139.2769054
 121.2830000 153.2620000 137.9290000 121.1430000 151.8730000 137.6820000
 120.3697479 151.4653644 138.3331632 120.5790000 151.6980000 136.3130000
 120.7660000 152.6490000 135.3550000 121.3206327 153.5471298 135.5833533
 120.2640000 152.4870000 134.1090000 120.4429132 153.2465101 133.3479252
 119.5190000 151.2860000 133.8580000 118.9970000 151.0640000 132.6580000
 118.4798730 150.2071279 132.5221676 119.1211012 151.7380906 131.9161764
 119.3360000 150.3520000 134.8060000 119.8630000 150.5410000 136.0490000
 119.7200000 149.7080000 136.9590000 123.4400000 152.4010000 137.5820000
 123.5628236 152.5056658 136.5040120 122.5130000 151.2340000 137.8750000
 123.0189433 150.2985596 137.6361028 122.2421681 151.2406470 138.9307964
 124.7320000 152.2140000 138.1700000 125.6590000 151.0400000 137.6760000
 126.7460000 150.8210000 138.6650000 126.0980000 151.2710000 136.2800000
 124.6420000 149.8160000 137.7240000 124.4300000 149.1250000 138.9660000
 123.6397557 149.6192218 139.5311184 125.3491445 149.1391210 139.5517257
 124.0310000 147.6840000 138.7060000 123.9639389 147.1435668 139.6502108
 122.6840000 147.6520000 138.1730000 122.5720000 146.6110000 137.2160000
 121.7431780 145.9350812 137.4264451 122.1860000 147.2190000 135.9100000
 122.4270000 148.4880000 135.4710000 122.9995174 149.1726235 136.0792072
 121.9680000 148.7260000 134.2850000 121.3880000 147.5230000 133.9120000
 120.7240000 147.1120000 132.7410000 120.5210000 147.9140000 131.6850000
 120.0373807 147.5637302 130.8704297 120.8517782 148.8680987 131.7045024
 120.2660000 145.8460000 132.7030000 120.4700000 145.0570000 133.7480000
 120.1088641 144.0393959 133.7265108 121.0780000 145.3140000 134.8870000
 121.5160000 146.5910000 134.8990000 124.8640000 146.9530000 137.6550000
 125.1230573 147.5980625 136.8154272 123.9050000 145.8720000 137.1860000
 124.4352036 145.1690173 136.5435059 123.5033595 145.3421933 138.0497650
 126.0710000 146.3960000 138.1900000 127.0500000 145.5930000 137.2510000
 128.0020000 144.8140000 138.0850000 127.6630000 146.4910000 136.2440000
 126.0320000 144.6010000 136.5360000 125.6620000 143.3790000 137.1940000
 124.8075338 143.5575398 137.8467718 126.4990175 143.0205109 137.7931560
 125.2960000 142.3190000 136.1720000 125.1080520 141.3707473 136.6755789
 124.0270000 142.6640000 135.5620000 124.0350000 142.2900000 134.1940000
 123.1837547 141.6637815 133.9269212 123.8190000 143.5170000 133.3750000
 124.1180000 144.8070000 133.7010000 124.6119771 145.0296116 134.6352550
 123.8130000 145.6620000 132.7800000 123.2820000 144.8770000 131.7680000
 122.7710000 145.1890000 130.4930000 122.7070000 146.4360000 130.0070000
 122.3300364 146.5996986 129.0843936 123.0357193 147.2122834 130.5632611
 122.3180000 144.1650000 129.7450000 122.3860000 142.9330000 130.2280000
 122.0294279 142.1059252 129.6320112 122.8440000 142.5110000 131.3880000
 123.2810000 143.5600000 132.1200000 126.2540000 142.1900000 134.9880000
 126.6204064 143.1589920 134.6490315 125.3590000 141.5860000 133.9210000
 125.9638297 141.2886771 133.0643324 124.8490065 140.7119110 134.3259386
 127.3810000 141.3540000 135.2740000 128.4700000 141.0970000 134.1630000
 129.3060000 139.9320000 134.5540000 129.2080000 142.3440000 133.8540000
 127.5470000 140.6990000 132.9270000 127.0940000 139.3420000 132.7960000
 126.1642314 139.2107370 133.3495346 127.8480668 138.6661420 133.1993607
 126.8570000 139.0040000 131.3350000 126.6047901 137.9481862 131.2362747
 125.6770000 139.7040000 130.8700000 125.8580000 140.1030000 129.5210000
 125.0469647 139.7700799 128.8733232 125.7510000 141.5890000 129.4560000
 126.0090000 142.4920000 130.4450000 126.3794597 142.1565240 131.4024012
 125.8270000 143.7220000 130.0890000 125.4260000 143.6220000 128.7650000
 125.0820000 144.5910000 127.8010000 125.0830000 145.9080000 128.0440000
 124.8269657 146.5565432 127.3132883 125.3397872 146.2526927 128.9579727
 124.7260000 144.1450000 126.5810000 124.7280000 142.8410000 126.3450000
 124.4467761 142.4747134 125.3687079 125.0340000 141.8450000 127.1480000
 125.3770000 142.3200000 128.3660000 127.9580000 139.4490000 130.3740000
 128.3669274 140.4241355 130.6385524 127.2030000 139.5560000 129.0590000
 127.9107854 139.7106350 128.2446125 126.6442366 138.6365450 128.8843973
 129.0370000 138.5110000 130.2920000 130.2570000 138.7990000 129.3360000
 131.0340000 137.5480000 129.1380000 131.0320000 139.9680000 129.8140000
 129.4980000 139.1720000 127.9870000 129.0620000 138.1210000 127.1110000
 128.0689985 137.7841359 127.4086081 129.7567541 137.2834476 127.1736360
 129.0120000 138.6160000 125.6770000 128.7714303 137.7882871 125.0098292
 127.9020000 139.5360000 125.5290000 128.2540000 140.5690000 124.6240000
 127.4903820 140.6464615 123.8500578 128.1600000 141.8710000 125.3430000
 128.3080000 141.9330000 126.6960000 128.4864047 141.0311505 127.2627796
 128.2350000 143.1150000 127.3500000 128.3805590 143.1498453 128.4296753
 127.9780000 144.2820000 126.5560000 127.8920000 145.4750000 127.1330000
 127.7099966 146.2716081 126.5393748 128.0069059 145.5667224 128.1322423
 127.8310000 144.2190000 125.2220000 127.9210000 143.0110000 124.5930000
 127.7910000 142.8990000 123.3630000 130.2260000 139.4210000 125.2190000
 130.5997300 140.0816083 126.0013179 129.6460000 140.2530000 124.0880000
 130.4526282 140.7605492 123.5589972 129.1106490 139.6031437 123.3957672
 131.3050000 138.5930000 124.7690000 132.6380000 139.2530000 124.2460000
 133.4300000 138.2400000 123.5010000 133.3480000 139.9420000 125.3490000
 132.0570000 140.3290000 123.2270000 131.7320000 139.9270000 121.8860000
 130.7079599 139.5549828 121.8536736 132.4102924 139.1347694 121.5691549
 131.8660000 141.1010000 120.9360000 131.7093822 140.7637851 119.9113750
 130.7870000 142.0370000 121.1790000 131.2530000 143.3630000 121.0000000
 130.5950976 143.8882593 120.3076371 131.0730000 144.0990000 122.2840000
 131.0470000 143.4310000 123.4710000 131.1472694 142.3558470 123.4907968
 130.8960000 144.0980000 124.6400000 130.9065596 143.5518845 125.5832639
 130.7440000 145.5230000 124.5610000 130.5890000 146.2390000 125.6680000
 130.4852827 147.2388473 125.5697723 130.5772474 145.7853204 126.5702961
 130.7680000 146.1780000 123.3880000 130.9340000 145.4760000 122.2300000
 130.9610000 146.0340000 121.1200000 133.1320000 141.9410000 121.1040000
 133.4057910 142.0653393 122.1517008 132.7010000 143.2800000 120.5310000
 133.5689183 143.9330689 120.4397968 132.2559040 143.1286336 119.5475988
 134.2570000 141.3980000 120.4030000 135.6460000 142.1400000 120.4540000
 136.5240000 141.6160000 119.3750000 136.2130000 142.0980000 121.8220000
 135.2030000 143.6280000 120.1020000 135.0500000 144.0120000 118.7250000
 134.0376119 143.7837255 118.3917417 135.7613694 143.4587937 118.1117977
 135.3060000 145.4970000 118.5600000 135.2798410 145.7584048 117.5021330
 134.2070000 146.2400000 119.1450000 134.6970000 147.4270000 119.7450000
 134.1343803 148.2818076 119.3696838 134.3570000 147.3910000 121.1950000
 134.1790000 146.2040000 121.8400000 134.2750727 145.2740212 121.2993436
 133.8810000 146.1680000 123.1590000 133.7664478 145.2093998 123.6650274
 133.7450000 147.4300000 123.8300000 133.4520000 147.4680000 125.1250000
 133.3649137 148.3752434 125.5602309 133.3236203 146.6106929 125.6433094
 133.9190000 148.5980000 123.1900000 134.2290000 148.5990000 121.8630000
 134.3980000 149.6510000 121.2260000 136.5420000 146.0340000 119.2800000
 136.6803946 145.5716258 120.2573207 136.1920000 147.5010000 119.4590000
 137.0668673 148.0425102 119.8188238 135.8745166 147.9185288 118.5035032
 137.7460000 145.8640000 118.5220000 139.1200000 146.3700000 119.1050000
 140.1260000 146.4290000 118.0130000 139.5080000 145.5770000 120.2940000
 138.7290000 147.8480000 119.5490000 138.7530000 148.9050000 118.5750000
 137.7904449 148.9562706 118.0661197 139.5345505 148.7063267 117.8416459
 139.0330000 150.2360000 119.2480000 139.1426508 151.0147452 118.4932604
 137.8700000 150.6350000 120.0150000 138.2820000 151.2950000 121.2000000
 137.8152388 152.2726008 121.3205400 137.7610000 150.5280000 122.3680000
 137.4600000 149.1990000 122.4320000 137.6393476 148.5614252 121.5789265
 137.0240000 148.8170000 123.5880000 137.0460000 149.9790000 124.3450000
 136.7040000 150.2460000 125.6840000 136.2470000 149.3130000 126.5300000
 136.0172096 149.5629037 127.4812338 136.1322814 148.3597584 126.2165214
 136.8400000 151.5150000 126.1140000 137.2950000 152.4340000 125.2740000
 137.4123530 153.4534795 125.6105841 137.6540000 152.3130000 124.0130000
 137.4960000 151.0340000 123.6080000 140.1690000 150.2280000 120.2700000
 140.1814021 149.3138434 120.8635173 139.8020000 151.4040000 121.1590000
 140.6245478 151.6138770 121.8427148 139.6108694 152.2814261 120.5411872
 141.4580000 150.3970000 119.6700000 142.7480000 150.4260000 120.5750000
 143.8850000 150.9790000 119.7930000 142.9800000 149.1030000 121.1990000
 142.3080000 151.4760000 121.6880000 142.4580000 152.8810000 121.4290000
 141.5681659 153.2581584 120.9249693 143.3256746 153.0424630 120.7893352
 142.6540000 153.6390000 122.7290000 142.8603014 154.6880432 122.5167564
 141.4040000 153.6560000 123.4630000 141.6650000 153.5680000 124.8540000
 141.1759482 154.3682272 125.4094853 140.9970000 152.3410000 125.3750000
 140.7550000 151.2740000 124.5450000 141.0769572 151.3030382 123.5145144
 140.1610000 150.1660000 125.0020000 139.8680000 148.9720000 124.1430000
 140.7995606 148.5801355 123.7346661 139.3827525 148.2022824 124.7431413
 139.2084414 149.2645863 123.3260085 139.7480000 150.0540000 126.3840000
 139.1950000 149.0720000 126.8920000 140.0370000 151.1700000 127.1390000
 139.7439167 151.1386059 128.1883890 140.6540000 152.3290000 126.6980000
 140.8620000 153.2660000 127.4470000 143.6510000 153.0180000 123.7060000
 143.5849752 151.9301555 123.7242724 143.1780000 153.5760000 125.0360000
 143.9080823 153.3396031 125.8100773 143.0687085 154.6577373 124.9585412
 145.0070000 153.3860000 123.4270000 146.1720000 152.8470000 124.3420000
 147.4000000 153.6470000 124.0970000 146.3190000 151.3800000 124.1930000
 145.5960000 153.1860000 125.7880000 145.7820000 154.5040000 126.3280000
 144.9646392 155.1501547 126.0078352 146.7246017 154.9154302 125.9669904
 145.8130000 154.4530000 127.8450000 146.0477438 155.4402777 128.2428408
 144.4800000 154.1700000 128.3390000 144.5610000 153.3470000 129.4910000
 143.9901884 153.7997178 130.3017527 143.8300000 152.0790000 129.2110000
 143.6830000 151.6270000 127.9340000 144.0896471 152.1922142 127.1084269
 143.0290000 150.4690000 127.6780000 142.9445402 150.1067905 126.6534166
 142.4880000 149.7650000 128.8050000 141.8330000 148.6240000 128.6270000
 141.4677444 148.1596019 129.4461602 141.7121649 148.2458590 127.6982860
 142.6330000 150.2150000 130.0630000 143.3070000 151.3790000 130.2870000
 143.4660000 151.8380000 131.4300000 146.6760000 153.3450000 128.4450000
 146.6049662 152.4167964 127.8779981 146.0390000 153.1540000 129.8110000
 146.6647960 152.4976610 130.4157294 145.9424911 154.1204152 130.3058008
 148.0570000 153.7090000 128.5480000 149.0950000 152.6920000 129.1590000
 150.3470000 153.4140000 129.5060000 149.2560000 151.5140000 128.2740000
 148.3420000 152.2610000 130.4940000 148.4610000 153.0840000 131.6660000
 147.6924424 153.8567803 131.6508371 149.4427928 153.5572701 131.6801051
 148.2990000 152.2440000 132.9190000 148.4842724 152.8585785 133.7999465
 146.9130000 151.8370000 133.0450000 146.8450000 150.5300000 133.5880000
 146.2011154 150.4714424 134.4655436 146.1520000 149.6500000 132.6040000
 146.0810000 149.7990000 131.2500000 146.6055370 150.6092961 130.7655593
 145.4040000 148.8690000 130.6570000 145.0040000 148.0440000 131.6980000
 144.2500000 146.8550000 131.7290000 143.7380000 146.2740000 130.6360000
 143.2047760 145.4204108 130.7206111 143.8851777 146.6895181 129.7272744
 144.0340000 146.2950000 132.9350000 144.5440000 146.8710000 134.0140000
 144.3801106 146.4264579 134.9845265 145.2660000 147.9670000 134.1170000
 145.4570000 148.5110000 132.8950000 149.0750000 150.9280000 132.9320000
 149.0741242 150.4419581 131.9563662 148.2700000 150.0950000 133.9130000
 148.8120768 149.1774205 134.1416915 148.1143923 150.6627077 134.8303846
 150.4330000 151.0870000 133.3590000 151.3820000 149.8320000 133.4450000
 152.5820000 150.1760000 134.2520000 151.6510000 149.2850000 132.0940000
 150.4640000 148.8190000 134.2620000 150.4360000 148.8960000 135.6960000
 149.6778516 149.6132356 136.0104585 151.4094658 149.2224442 136.0619224
 150.1140000 147.5370000 136.2900000 150.1874095 147.5831352 137.3765459
 148.7220000 147.2220000 136.0330000 148.5820000 145.8320000 135.7930000
 147.8073341 145.4329142 136.4477691 148.0170000 145.6490000 134.4260000
 148.1070000 146.4840000 133.3380000 148.6464294 147.4164031 133.4157321
 147.4920000 146.0330000 132.2650000 146.9710000 144.8050000 132.6760000
 146.2080000 143.8550000 131.9580000 145.8270000 143.8860000 130.7920000
 145.8750000 142.7550000 132.7610000 145.3266714 142.0303509 132.3436059
 146.2390000 142.5950000 134.0890000 145.8260000 141.4770000 134.6870000
 145.2674081 140.7405932 134.2798385 146.0829127 141.3629071 135.6570926
 146.9570000 143.4940000 134.7660000 147.2850000 144.5660000 133.9950000
 150.8790000 146.3600000 135.6870000 151.0010878 146.4579220 134.6082949
 149.9530000 145.1940000 135.9880000 150.4585621 144.2575820 135.7521449
 149.6849959 145.2055359 137.0444757 152.1720000 146.1770000 136.2760000
 153.0990000 145.0000000 135.7860000 154.1870000 144.7860000 136.7760000
 153.5360000 145.2250000 134.3880000 152.0820000 143.7770000 135.8420000
 151.8720000 143.0920000 137.0870000 151.0820736 143.5890794 137.6500527
 152.7919199 143.1091945 137.6714248 151.4730000 141.6490000 136.8350000
 151.4077381 141.1136083 137.7822043 150.1250000 141.6130000 136.3040000
 150.0130000 140.5680000 135.3520000 149.1838875 139.8940126 135.5674358
 149.6250000 141.1700000 134.0440000 149.8660000 142.4360000 133.5980000
 150.4399453 143.1235257 134.2015700 149.4050000 142.6680000 132.4110000
 148.8250000 141.4630000 132.0460000 148.1590000 141.0460000 130.8770000
 147.9550000 141.8410000 129.8180000 147.4702338 141.4861661 129.0060912
 148.2859828 142.7951301 129.8315997 147.7020000 139.7800000 130.8470000
 147.9080000 138.9950000 131.8950000 147.5495143 137.9763633 131.8786766
 148.5160000 139.2590000 133.0320000 148.9540000 140.5360000 133.0360000
 152.3060000 140.9130000 135.7870000 152.5641355 141.5535758 134.9437162
 151.3460000 139.8300000 135.3250000 151.8751735 139.1231777 134.6858781
 150.9449519 139.3052093 136.1920960 153.5130000 140.3590000 136.3230000
 154.4920000 139.5530000 135.3870000 155.4450000 138.7770000 136.2240000
 155.1030000 140.4460000 134.3750000 153.4730000 138.5560000 134.6790000
 153.1040000 137.3360000 135.3430000 152.2503444 137.5175094 135.9960135
 153.9419294 136.9802283 135.9425010 152.7370000 136.2720000 134.3270000
 152.5504458 135.3260914 134.8354819 151.4670000 136.6130000 133.7170000
 151.4740000 136.2330000 132.3510000 150.5974254 135.6203681 132.1402905
 151.2570000 137.4540000 131.5250000 151.6030000 138.6850000 131.9980000
 152.0310133 138.7861646 132.9843925 151.4180000 139.7950000 131.2460000
 151.7238820 140.7687256 131.6286159 150.8270000 139.6120000 129.9500000
 150.6150000 140.6580000 129.1610000 150.1974187 140.4874462 128.2573198
 150.8678572 141.5865258 129.4676016 150.4850000 138.3980000 129.4890000
 150.6950000 137.2980000 130.2680000 150.3950000 136.1550000 129.8900000
 153.6930000 136.1380000 133.1430000 154.0574288 137.1055844 132.7979336
 152.7970000 135.5260000 132.0800000 153.4014100 135.2231562 131.2249717
 152.2876594 134.6544446 132.4911734 154.8220000 135.3030000 133.4310000
 155.9090000 135.0410000 132.3210000 156.7460000 133.8780000 132.7160000
 156.6460000 136.2860000 132.0050000 154.9850000 134.6360000 131.0880000
 154.5320000 133.2790000 130.9650000 153.6026715 133.1505251 131.5199260
 155.2862817 132.6053419 131.3716257 154.2940000 132.9330000 129.5060000
 154.0420424 131.8765061 129.4141450 153.1130000 133.6300000 129.0370000
 153.2920000 134.0220000 127.6880000 152.4806079 133.6851244 127.0428203
 153.1850000 135.5070000 127.6140000 153.4440000 136.4170000 128.5990000
 153.8163844 136.0878030 129.5578330 153.2600000 137.6440000 128.2360000
 152.8590000 137.5370000 126.9140000 152.5130000 138.5010000 125.9460000
 152.5140000 139.8200000 126.1810000 152.2562409 140.4639503 125.4468409
 152.7725116 140.1703925 127.0923153 152.1550000 138.0490000 124.7280000
 152.1580000 136.7440000 124.4980000 151.8769870 136.3732060 123.5233500
 152.4650000 135.7510000 125.3060000 152.8100000 136.2340000 126.5210000
 155.3930000 133.3730000 128.5410000 155.8005549 134.3498925 128.8011516
 154.6380000 133.4730000 127.2260000 155.3456975 133.6225311 126.4105836
 154.0785816 132.5529419 127.0567538 156.4730000 132.4360000 128.4620000
 157.6920000 132.7190000 127.5040000 158.4690000 131.4670000 127.3110000
 158.4670000 133.8900000 127.9750000 156.9310000 133.0850000 126.1530000
 156.4940000 132.0290000 125.2830000 155.5015323 131.6932441 125.5836258
 157.1890771 131.1919846 125.3491331 156.4420000 132.5160000 123.8480000
 156.2000403 131.6844593 123.1861126 155.3320000 133.4360000 123.6960000
 155.6820000 134.4640000 122.7840000 154.9149187 134.5365135 122.0130088
 155.5900000 135.7700000 123.4970000 155.7180000 136.0290000 124.8400000
 155.9118589 135.2213775 125.5303380 155.5810000 137.3010000 125.1550000
 155.3570000 137.9210000 123.9260000 155.1360000 139.2850000 123.6240000
 155.0940000 140.2510000 124.3800000 154.9410000 139.4790000 122.2480000
 154.7697357 140.4134085 121.9356734 154.9610000 138.4790000 121.2880000
 154.7540000 138.8600000 120.0290000 154.5726627 139.7974039 119.6996202
 154.7597651 138.1307622 119.3302297 155.1680000 137.1920000 121.5770000
 155.3580000 136.9920000 122.9100000 157.6560000 133.3190000 123.3830000
 158.0300440 133.9833334 124.1620064 157.0740000 134.1450000 122.2500000
 157.8795707 134.6494014 121.7163950 156.5365567 133.4919263 121.5624321
 158.7350000 132.4900000 122.9370000 160.0660000 133.1480000 122.4090000
 160.8580000 132.1320000 121.6680000 160.7780000 133.8420000 123.5070000
 159.4840000 134.2180000 121.3850000 159.1580000 133.8090000 120.0470000
 158.1344075 133.4355259 120.0174120 159.8365135 133.0156114 119.7335441
 159.2900000 134.9780000 119.0900000 159.1326013 134.6355831 118.0672216
 158.2110000 135.9160000 119.3290000 158.6770000 137.2420000 119.1430000
 158.0180596 137.7640778 118.4492194 158.4980000 137.9830000 120.4240000
 158.4740000 137.3220000 121.6140000 158.5760490 136.2471226 121.6389892
 158.3230000 137.9940000 122.7790000 158.3322916 137.4517100 123.7244817
 158.1710000 139.4190000 122.6940000 158.0170000 140.1400000 123.7970000
 157.9133193 141.1393687 123.6939806 158.0058777 139.6907228 124.7015042
 158.1930000 140.0660000 121.5170000 158.3580000 139.3600000 120.3630000
 158.3840000 139.9120000 119.2500000 160.5560000 135.8190000 119.2530000
 160.8310712 135.9495106 120.2996144 160.1240000 137.1540000 118.6730000
 160.9915758 137.8068323 118.5769716 159.6777747 136.9967880 117.6910287
 161.6800000 135.2750000 118.5520000 163.0700000 136.0170000 118.5980000
 163.9460000 135.4880000 117.5210000 163.6380000 135.9810000 119.9650000
 162.6250000 137.5020000 118.2390000 162.4710000 137.8780000 116.8620000
 161.4587607 137.6472521 116.5299954 163.1817990 137.3214414 116.2511744
 162.7270000 139.3640000 116.6870000 162.7001724 139.6209041 115.6280477
 161.6280000 140.1080000 117.2690000 162.1170000 141.2990000 117.8630000
 161.5821954 142.1783430 117.5040582 161.7790000 141.2700000 119.3140000
 161.6100000 140.0730000 119.9660000 161.7558842 139.1417572 119.4388332
 161.3100000 140.0340000 121.2690000 161.1100000 138.7580000 122.0320000
 162.0214321 138.1617209 121.9890783 160.8757880 138.9884181 123.0713037
 160.2872514 138.1953857 121.5908093 161.1500000 141.2490000 122.0370000
 160.8760000 141.3080000 123.2400000 161.3440000 142.3990000 121.3000000
 161.2297063 143.3444959 121.8301652 161.6590000 142.4730000 119.9540000
 161.8060000 143.5420000 119.3910000 163.9630000 139.9050000 117.4040000
 164.1024611 139.4481533 118.3837655 163.6130000 141.3720000 117.5750000
 164.4877918 141.9155673 117.9318937 163.2954457 141.7843326 116.6172729
 165.1660000 139.7310000 116.6460000 166.5410000 140.2410000 117.2240000
 167.5450000 140.2950000 116.1300000 166.9300000 139.4540000 118.4180000
 166.1490000 141.7210000 117.6600000 166.1720000 142.7720000 116.6820000
 165.2090602 142.8202017 116.1735478 166.9531658 142.5700230 115.9491385
 166.4520000 144.1070000 117.3480000 166.5601435 144.8816335 116.5888246
 165.2900000 144.5100000 118.1150000 165.7030000 145.1760000 119.2950000
 165.1954021 146.1378883 119.3672117 165.1840000 144.4150000 120.4670000
 164.9220000 143.0810000 120.3700000 165.0807697 142.5632635 119.4355799
 164.4610000 142.3850000 121.4360000 164.2825058 141.3132165 121.3492801
 164.2450000 143.1200000 122.6500000 163.7920000 142.5010000 123.7320000
 163.6534727 143.0538859 124.5658033 163.5968173 141.5103385 123.7076092
 164.5020000 144.4350000 122.7400000 164.9760000 145.1050000 121.6500000
 165.2270000 146.3200000 121.6820000 167.5890000 144.1050000 118.3680000
 167.6014188 143.1937825 118.9660195 167.2230000 145.2850000 119.2510000
 168.0469648 145.4995566 119.9315488 167.0294037 146.1587855 118.6288107
 168.8780000 144.2700000 117.7660000 170.1690000 144.3050000 118.6690000
 171.3050000 144.8540000 117.8830000 170.4020000 142.9850000 119.3000000
 169.7300000 145.3610000 119.7770000 169.8790000 146.7640000 119.5100000
 168.9885557 147.1381985 119.0048420 170.7459231 146.9222434 118.8685142
 170.0760000 147.5290000 120.8060000 170.2816225 148.5768202 120.5871585
 168.8270000 147.5500000 121.5420000 169.0890000 147.4680000 122.9330000
 168.5730228 148.2828019 123.4409023 168.4220000 146.2440000 123.4620000
 168.0990000 145.0840000 122.7980000 168.3303334 144.9786456 121.7483394
 167.5100000 144.1820000 123.5550000 167.4530000 144.7900000 124.8090000
 166.9270000 144.3080000 126.0310000 166.3960000 143.2290000 126.2750000
 167.0640000 145.2560000 127.0560000 166.7123343 145.0096050 127.9591164
 167.6400000 146.5080000 126.9160000 167.6780000 147.2710000 128.0080000
 167.3217008 147.0391730 128.9241918 168.0900402 148.1872503 127.9040329
 168.1340000 146.9620000 125.7610000 168.0060000 146.0500000 124.7590000
 171.0740000 146.9140000 121.7860000 171.0075919 145.8262693 121.8090376
 170.6020000 147.4780000 123.1140000 171.3336542 147.2467899 123.8881597
 170.4907327 148.5591411 123.0312130 172.4300000 147.2800000 121.5040000
 173.5960000 146.7470000 122.4200000 174.8230000 147.5460000 122.1700000
 173.7430000 145.2800000 122.2790000 173.0220000 147.0930000 123.8650000
 173.2080000 148.4130000 124.3980000 172.3904702 149.0575163 124.0749772
 174.1503039 148.8227852 124.0343518 173.2400000 148.3700000 125.9150000
 173.4747910 149.3594095 126.3074811 171.9080000 148.0890000 126.4120000
 171.9910000 147.2730000 127.5680000 171.4388583 147.6984276 128.4060036
 171.2600000 146.0020000 127.2950000 171.1210000 145.5420000 126.0090000
 171.5713977 146.0791175 125.1873876 170.4700000 144.4020000 125.7520000
 170.2840000 143.8520000 124.3690000 171.2584122 143.6660497 123.9172889
 169.7240741 142.9182570 124.4210283 169.7341560 144.5714404 123.7622245
 169.8870000 143.6170000 126.8170000 169.2720000 142.5550000 126.6740000
 170.0810000 144.1540000 128.0710000 169.6562640 143.6032307 128.9102576
 170.7530000 145.3280000 128.3710000 170.8670000 145.7230000 129.5170000
 174.1040000 147.2650000 126.5200000 174.0329836 146.3340145 125.9575755
 173.4690000 147.0800000 127.8880000 174.0951035 146.4253487 128.4942385
 173.3743655 148.0484441 128.3791828 175.4860000 147.6310000 126.6200000
 176.5250000 146.6160000 127.2350000 177.7760000 147.3410000 127.5760000
 176.6850000 145.4340000 126.3560000 175.7730000 146.1930000 128.5720000
 175.8930000 147.0210000 129.7400000 175.1240589 147.7933301 129.7216751
 176.8746308 147.4946904 129.7509116 175.7330000 146.1880000 130.9970000
 175.9191537 146.8073442 131.8744160 174.3470000 145.7810000 131.1270000
 174.2800000 144.4770000 131.6770000 173.6362067 144.4239617 132.5549615
 173.5860000 143.5920000 130.6980000 173.5140000 143.7330000 129.3440000
 174.0392600 144.5403011 128.8553606 172.8360000 142.8010000 128.7560000
 172.4380000 141.9800000 129.8010000 171.6850000 140.7920000 129.8400000
 171.1720000 140.2050000 128.7490000 170.6389334 139.3517644 128.8380522
 171.3186608 140.6160919 127.8381801 171.4700000 140.2380000 131.0480000
 171.9810000 140.8200000 132.1250000 171.8180982 140.3818369 133.0985888
 172.7030000 141.9160000 132.2200000 172.8920000 142.4540000 130.9960000
 176.5100000 144.8720000 131.0160000 176.5087067 144.3801231 130.0432954
 175.7060000 144.0440000 132.0030000 176.2482217 143.1275037 132.2356570
 175.5519415 144.6165425 132.9176372 177.8680000 145.0350000 131.4400000
 178.8180000 143.7800000 131.5320000 180.0180000 144.1290000 132.3370000
 179.0850000 143.2260000 130.1840000 177.9010000 142.7720000 132.3550000
 177.8740000 142.8550000 133.7890000 177.1152190 143.5732680 134.0995519
 178.8476161 143.1833039 134.1528528 177.5530000 141.4990000 134.3900000
 177.6279313 141.5513351 135.4761610 176.1620000 141.1830000 134.1370000
 176.0220000 139.7910000 133.9040000 175.2511115 139.3884749 134.5611177
 175.4550000 139.6010000 132.5380000 175.6390000 140.5430000 131.5710000
 176.1925078 141.4442251 131.7896832 175.1350000 140.3680000 130.3270000
 175.3137470 141.1188378 129.5573296 174.3900000 139.1650000 130.0900000
 173.8660000 138.9300000 128.8930000 173.3487090 138.0716926 128.7672265
 173.9888952 139.5960597 128.1437586 174.2090000 138.2390000 131.0480000
 174.7390000 138.4420000 132.2870000 174.5990000 137.6180000 133.2060000
 178.3180000 140.3190000 133.7930000 178.4386076 140.4116458 132.7136625
 177.3930000 139.1540000 134.1010000 177.8991481 138.2166484 133.8701639
 177.1254954 139.1712715 135.1575241 179.6120000 140.1400000 134.3810000
 180.5390000 138.9610000 133.8960000 181.6280000 138.7520000 134.8860000
 180.9740000 139.1780000 132.4970000 179.5220000 137.7370000 133.9590000
 179.3140000 137.0590000 135.2080000 178.5246324 137.5589021 135.7693348
 180.2347914 137.0796062 135.7909402 178.9150000 135.6150000 134.9640000
 178.8508443 135.0849378 135.9142723 177.5670000 135.5760000 134.4350000
 177.4540000 134.5260000 133.4880000 176.6039412 133.8952324 133.7480607
 177.0640000 135.1200000 132.1780000 177.3720000 136.4130000 131.8790000
 177.8963762 137.0247092 132.5981949 177.0300000 136.9510000 130.6860000
 177.3064584 137.9795809 130.4542839 176.3180000 136.1060000 129.7710000
 175.9490000 136.5690000 128.5830000 175.4496791 135.9415050 127.9689729
 176.1672163 137.5184256 128.3164028 176.0140000 134.8310000 130.0700000
 176.3830000 134.3160000 131.2770000 176.1250000 133.1460000 131.6020000
 179.7470000 134.8730000 133.9190000 180.0041815 135.5095121 133.0723544
 178.7870000 133.7870000 133.4630000 179.3161141 133.0771491 132.8271942
 178.3866813 133.2664754 134.3329996 180.9550000 134.3230000 134.4570000
 181.9330000 133.5120000 133.5230000 182.8870000 132.7400000 134.3630000
 182.5430000 134.3990000 132.5070000 180.9130000 132.5100000 132.8220000
 180.5460000 131.2940000 133.4930000 179.6927426 131.4784907 134.1456983
 181.3850932 130.9420900 134.0931521 180.1780000 130.2240000 132.4810000
 179.9926691 129.2801693 132.9937723 178.9070000 130.5620000 131.8720000
 178.9130000 130.1760000 130.5080000 178.0335260 129.5645895 130.3060050
 178.6950000 131.3930000 129.6760000 178.9850000 132.7020000 129.9740000
 179.4331295 132.9539821 130.9237826 178.6660000 133.5510000 129.0190000
 178.1400000 132.7370000 128.0160000 177.6260000 133.0790000 126.7440000
 177.5260000 134.1820000 126.2180000 177.1820000 131.9430000 126.0500000
 176.7901873 132.0839849 125.1408220 177.2350000 130.6430000 126.5270000
 176.7630000 129.6940000 125.7190000 176.3605396 129.8217209 124.8014961
 176.7931664 128.7471746 126.0693035 177.7180000 130.3230000 127.7300000
 178.1510000 131.4170000 128.4120000 181.1330000 130.0850000 131.2970000
 181.4973479 131.0509946 130.9474233 180.2360000 129.4690000 130.2380000
 180.8392325 129.1633858 129.3831259 179.7277228 128.5986779 130.6530830
 182.2620000 129.2520000 131.5880000 183.3480000 128.9850000 130.4780000
 184.1860000 127.8240000 130.8790000 184.0850000 130.2290000 130.1550000
 182.4230000 128.5730000 129.2490000 181.9710000 127.2150000 129.1330000
 181.0427356 127.0883264 129.6901167 182.7265459 126.5438959 129.5414977
 181.7310000 126.8620000 127.6770000 181.4793715 125.8049244 127.5911301
 180.5490000 127.5560000 127.2060000 180.7270000 127.9420000 125.8540000
 179.8779639 127.5893708 125.2684322 180.6190000 129.4270000 125.7730000
 180.8730000 130.3620000 126.7480000 181.1977528 130.0475958 127.7288606
 180.6800000 131.6050000 126.3580000 180.2830000 131.4750000 125.0260000
 179.9360000 132.4680000 124.0810000 179.9070000 133.6880000 124.2110000
 179.5810000 131.8990000 122.8490000 179.3100469 132.5224998 122.1156304
 179.5690000 130.5410000 122.5690000 179.2020000 130.1910000 121.3370000
 178.9205321 130.8077302 120.5883212 179.1847476 129.2014758 121.1353934
 179.8950000 129.6060000 123.4650000 180.2410000 130.1470000 124.6640000
 182.8290000 127.2980000 126.7070000 183.2375118 128.2761294 126.9609284
 182.0720000 127.3910000 125.3940000 182.7780041 127.5373790 124.5765462
 181.5131660 126.4696110 125.2301488 183.9090000 126.3600000 126.6320000
 185.1270000 126.6390000 125.6710000 185.9040000 125.3850000 125.4840000
 185.9020000 127.8130000 126.1360000 184.3640000 126.9970000 124.3200000
 183.9260000 125.9370000 123.4560000 182.9333732 125.6041662 123.7593378
 184.6208860 125.1001196 123.5257504 183.8730000 126.4180000 122.0170000
 183.6313046 125.5832611 121.3590535 182.7620000 127.3360000 121.8620000
 183.1110000 128.3590000 120.9460000 182.3874013 128.4640965 120.1376320
 183.0190000 129.6690000 121.6510000 183.1540000 129.9140000 122.9870000
 183.4013023 129.1092176 123.6634380 183.0210000 131.1600000 123.3050000
 182.7890000 131.7840000 122.0880000 182.5710000 133.1310000 121.7390000
 182.5460000 134.1320000 122.6300000 182.3849771 135.0797855 122.3203623
 182.6881832 133.9385108 123.6110426 182.3680000 133.4040000 120.4360000
 182.3950000 132.4110000 119.5580000 182.2354845 132.6210766 118.5107074
 182.5960000 131.1250000 119.7520000 182.7860000 130.8810000 121.0680000
 185.0860000 127.2180000 121.5480000 185.4607044 127.8861369 122.3234279
 184.5020000 128.0390000 120.4110000 185.3067637 128.5412769 119.8741829
 183.9641251 127.3824767 119.7270644 186.1650000 126.3870000 121.1050000
 187.4950000 127.0430000 120.5720000 188.2860000 126.0220000 119.8350000
 188.2080000 127.7430000 121.6660000 186.9120000 128.1080000 119.5420000
 186.5840000 127.6910000 118.2080000 185.5599007 127.3186030 118.1826803
 187.2620549 126.8957448 117.8983043 186.7150000 128.8560000 117.2450000
 186.5566756 128.5074020 116.2244550 185.6350000 129.7940000 117.4800000
 186.1010000 131.1190000 117.2870000 185.4371417 131.6333768 116.5921562
 185.9230000 131.8670000 118.5640000 185.8820000 131.3810000 119.8480000
 185.9853854 130.3212792 120.0288458 185.7100000 132.3100000 120.7660000
 185.6450000 133.4930000 120.0300000 185.4670000 134.8270000 120.4660000
 185.3330000 135.2590000 121.6060000 185.4480000 135.7200000 119.3840000
 185.3193520 136.6898426 119.5910111 185.5860000 135.3650000 118.0510000
 185.5400000 136.3590000 117.1650000 185.4040915 137.3407471 117.3594269
 185.6316074 136.1013065 116.1927330 185.7500000 134.1050000 117.6420000
 185.7710000 133.2290000 118.6840000 187.9800000 129.6980000 117.4010000
 188.2550583 129.8330145 118.4470463 187.5480000 131.0310000 116.8150000
 188.4160418 131.6824432 116.7138838 187.0995579 130.8693260 115.8347646
 189.1040000 129.1500000 116.7030000 190.4930000 129.8940000 116.7430000
 191.3690000 129.3590000 115.6680000 191.0630000 129.8650000 118.1110000
 190.0480000 131.3770000 116.3770000 189.8910000 131.7450000 114.9970000
 188.8775228 131.5135577 114.6692830 190.6006269 131.1848810 114.3880689
 190.1470000 133.2300000 114.8160000 190.1189521 133.4808070 113.7556187
 189.0480000 133.9770000 115.3950000 189.5380000 135.1710000 115.9820000
 188.9689933 136.0176188 115.5978552 189.2020000 135.1500000 117.4340000
 188.9970000 134.0670000 118.2540000 189.0740387 133.0656463 117.8568126
 188.7120000 134.3860000 119.5000000 188.7440000 135.7810000 119.4980000
 188.5160000 136.6980000 120.5520000 188.2400000 136.4760000 121.7260000
 188.6360000 138.0230000 120.1100000 188.4827349 138.7458671 120.7837741
 188.9420000 138.4120000 118.8160000 189.0120000 139.7220000 118.5890000
 188.8547541 140.4637641 119.2562032 189.2264985 140.0051984 117.6435424
 189.1540000 137.5440000 117.8230000 189.0400000 136.2540000 118.2390000
 191.3840000 133.7750000 115.5280000 191.5252768 133.3233869 116.5099293
 191.0330000 135.2440000 115.6920000 191.9079259 135.7899445 116.0449142
 190.7139307 135.6511646 114.7325668 192.5860000 133.5980000 114.7690000
 193.9610000 134.1110000 115.3430000 194.9640000 134.1590000 114.2480000
 194.3520000 133.3310000 116.5410000 193.5700000 135.5930000 115.7730000
 193.5910000 136.6400000 114.7880000 192.6281054 136.6854325 114.2792074
 194.3713665 136.4345922 114.0552406 193.8710000 137.9790000 115.4470000
 193.9778661 138.7511563 114.6851250 192.7100000 138.3840000 116.2140000
 193.1240000 139.0570000 117.3910000 192.6140527 140.0180298 117.4578944
 192.6060000 138.3010000 118.5660000 192.3450000 136.9670000 118.4770000
 192.5038081 136.4445677 117.5452037 191.8850000 136.2760000 119.5470000
 191.7052763 135.2039608 119.4661816 191.6710000 137.0170000 120.7560000
 191.2190000 136.4030000 121.8430000 191.0815949 136.9602347 122.6740896
 191.0238049 135.4122219 121.8240529 191.9270000 138.3340000 120.8400000
 192.4000000 138.9970000 119.7470000 192.6510000 140.2130000 119.7720000
 195.0090000 137.9810000 116.4660000 195.0219902 137.0727556 117.0685132
 194.6440000 139.1660000 117.3440000 195.4687784 139.3838069 118.0225278
 194.4498071 140.0367204 116.7177131 196.2980000 138.1440000 115.8620000
 197.5900000 138.1840000 116.7630000 198.7240000 138.7300000 115.9740000
 197.8240000 136.8680000 117.4010000 197.1510000 139.2460000 117.8670000
 197.3000000 140.6480000 117.5930000 196.4085908 141.0194486 117.0875144
 198.1664176 140.8030083 116.9500432 197.4980000 141.4180000 118.8850000
 197.7036698 142.4646595 118.6607162 196.2500000 141.4430000 119.6220000
 196.5130000 141.3680000 121.0130000 196.0366181 142.1723613 121.5735019
 195.8480000 140.1470000 121.5480000 195.5370000 138.9980000 120.8810000
 195.8196014 138.8802354 119.8453024 194.9590000 138.1060000 121.6170000
 194.8900000 138.7080000 122.8640000 194.3840000 138.2680000 124.1020000
 193.8220000 137.0650000 124.2870000 193.4761843 136.8040871 125.1993800
 193.7444149 136.4195970 123.5139966 194.4700000 139.1210000 125.1410000
 195.0290000 140.3080000 124.9540000 195.1065789 140.9976520 125.7815027
 195.5420000 140.8300000 123.8600000 195.4320000 139.9570000 122.8350000
 198.4970000 140.8080000 119.8660000 198.4318746 139.7203609 119.8959791
 198.0270000 141.3800000 121.1920000 198.7592508 141.1520953 121.9665757
 197.9169529 142.4608117 121.1034791 199.8520000 141.1750000 119.5810000
 201.0200000 140.6460000 120.4980000 202.2470000 141.4440000 120.2420000
 201.1670000 139.1780000 120.3640000 200.4470000 140.9990000 121.9410000
 200.6330000 142.3230000 122.4680000 199.8143170 142.9653688 122.1436229
 201.5742041 142.7319551 122.1005884 200.6680000 142.2870000 123.9850000
 200.9028779 143.2784688 124.3721968 199.3360000 142.0080000 124.4850000
 199.4210000 141.1970000 125.6460000 198.8521204 141.6574527 126.4537491
 198.6890000 139.9250000 125.3800000 198.5400000 139.4610000 124.1080000
 198.9445664 140.0181200 123.2759284 197.8860000 138.3000000 123.8650000
 197.7974496 137.9288464 122.8439691 197.3480000 137.6060000 125.0010000
 196.6930000 136.4640000 124.8350000 196.3300210 136.0068581 125.6592379
 196.5696943 136.0776167 123.9100108 197.4960000 138.0710000 126.2530000
 198.1690000 139.2370000 126.4640000 198.3310000 139.7080000 127.6020000
 201.5330000 141.1850000 124.5950000 201.4614629 140.2508283 124.0379502
 200.8990000 141.0080000 125.9640000 201.5260534 140.3578204 126.5740571
 200.8035802 141.9794139 126.4491292 202.9140000 141.5510000 124.6920000
 203.9540000 140.5410000 125.3100000 205.2060000 141.2690000 125.6470000
 204.1140000 139.3550000 124.4370000 203.2040000 140.1250000 126.6510000
 203.3250000 140.9590000 127.8140000 202.5554678 141.7306567 127.7924092
 204.3065913 141.4328398 127.8214106 203.1660000 140.1310000 129.0760000
 203.3531458 140.7537397 129.9507977 201.7820000 139.7250000 129.2090000
 201.7160000 138.4240000 129.7660000 201.0645568 138.3889394 130.6392077
 201.0210000 137.5340000 128.7930000 201.0430000 137.8200000 127.4500000
 201.5933312 138.6747223 127.0853281 200.4270000 137.0270000 126.5660000
 200.4150000 137.2900000 125.0890000 201.4380255 137.3003936 124.7129543
 199.8508931 136.5056557 124.5843343 199.9473517 138.2553015 124.8950993
 199.7120000 135.8450000 126.9920000 199.1170000 135.0570000 126.2500000
 199.7490000 135.6380000 128.3550000 199.2220990 134.7604334 128.7296371
 200.3800000 136.4350000 129.2950000 200.3510000 136.1680000 130.4810000
 203.9440000 138.8170000 129.0990000 203.9403241 138.3208766 128.1284606
 203.1420000 137.9930000 130.0920000 203.6856336 137.0784083 130.3288202
 202.9885332 138.5702677 131.0037621 205.3030000 138.9800000 129.5220000
 206.2530000 137.7280000 129.6190000 207.4540000 138.0810000 130.4210000
 206.5190000 137.1670000 128.2740000 205.3380000 136.7230000 130.4480000
 205.3120000 136.8140000 131.8820000 204.5537404 137.5339293 132.1899680
 206.2857316 137.1447643 132.2433065 204.9920000 135.4610000 132.4910000
 205.0672954 135.5185496 133.5768720 203.6010000 135.1430000 132.2400000
 203.4610000 133.7500000 132.0140000 202.6907416 133.3511995 132.6741207
 202.8930000 133.5530000 130.6510000 203.0750000 134.4890000 129.6780000
 203.6285942 135.3913018 129.8919741 202.5700000 134.3080000 128.4350000
 202.7479824 135.0540561 127.6605177 201.8250000 133.1030000 128.2060000
 201.3000000 132.8620000 127.0110000 200.7827364 132.0029875 126.8900186
 201.4220446 133.5243331 126.2583238 201.6460000 132.1820000 129.1680000
 202.1770000 132.3920000 130.4060000 202.0380000 131.5730000 131.3300000
 205.7570000 134.2780000 131.8990000 205.8759867 134.3653105 130.8190380
 204.8330000 133.1150000 132.2140000 205.3395551 132.1765018 131.9887837
 204.5656019 133.1385410 133.2704300 207.0520000 134.1020000 132.4860000
 207.9790000 132.9210000 132.0060000 209.0690000 132.7190000 132.9960000
 208.4120000 133.1320000 130.6050000 206.9630000 131.6980000 132.0770000
 206.7560000 131.0250000 133.3290000 205.9676701 131.5274303 133.8895353
 207.6772191 131.0480999 133.9111705 206.3570000 129.5800000 133.0930000
 206.2939036 129.0538640 134.0455225 205.0080000 129.5380000 132.5650000
 204.8950000 128.4840000 131.6240000 204.0443264 127.8564987 131.8898868
 204.5040000 129.0700000 130.3100000 204.7310000 130.3380000 129.8320000
 205.2588617 131.0584428 130.4392283 204.2530000 130.5470000 128.6230000
 203.6810000 129.3220000 128.2790000 203.0100000 128.9310000 127.0960000
 202.7780000 129.5850000 126.0850000 202.5760000 127.6000000 127.1700000
 202.0817949 127.2331834 126.3818342 202.7710000 126.7540000 128.2510000
 202.2840000 125.5200000 128.1340000 201.7782764 125.1381594 127.3475258
 202.4177302 124.9054180 128.9242570 203.4020000 127.1260000 129.3670000
 203.8280000 128.4160000 129.3060000 207.1880000 128.8340000 132.0500000
 207.4439252 129.4653203 131.1990971 206.2280000 127.7450000 131.6020000
 206.7562250 127.0322747 130.9686753 205.8301553 127.2286985 132.4756433
 208.3970000 128.2860000 132.5900000 209.3740000 127.4700000 131.6600000
 210.3300000 126.7050000 132.5020000 209.9820000 128.3540000 130.6370000
 208.3540000 126.4650000 130.9640000 207.9880000 125.2530000 131.6420000
 207.1353442 125.4409907 132.2944857 208.8278582 124.9044631 132.2430498
 207.6190000 124.1780000 130.6360000 207.4346063 123.2369237 131.1541444
 206.3470000 124.5120000 130.0260000 206.3520000 124.1170000 128.6640000
 205.4924966 123.4923184 128.4208415 206.1320000 125.3310000 127.8270000
 206.4910000 126.5720000 128.2930000 206.9662503 126.6745110 129.2573801
 206.3030000 127.6680000 127.5490000 206.6710000 129.0490000 128.0060000
 207.7408673 129.0916931 128.2101099 206.4213478 129.7688120 127.2264845
 206.1184940 129.2911283 128.9138603 205.7120000 127.5870000 126.2320000
 205.5030000 128.5420000 125.4760000 205.3910000 126.3010000 125.8490000
 204.9397461 126.1830835 124.8638268 205.5760000 125.1480000 126.5920000
 205.2530000 124.0550000 126.1650000 208.5730000 124.0330000 129.4520000
 208.9364124 124.9969898 129.0959748 207.6750000 123.4100000 128.3980000
 208.2772686 123.0996777 127.5441430 207.1679338 122.5418274 128.8190231
 209.7030000 123.2010000 129.7460000 210.7880000 122.9290000 128.6360000
 211.6260000 121.7710000 129.0410000 211.5230000 124.1710000 128.3060000
 209.8620000 122.5110000 127.4100000 209.4090000 121.1520000 127.3010000
 208.4811044 121.0284095 127.8594221 210.1643449 120.4825655 127.7125970
 209.1680000 120.7910000 125.8470000 208.9162111 119.7335313 125.7666159
 207.9850000 121.4830000 125.3740000 208.1610000 121.8610000 124.0190000
 207.3149939 121.5058539 123.4305748 208.0530000 123.3450000 123.9310000
 208.3420000 124.1300000 125.0080000 208.6444395 123.6791261 125.9416182
 208.2560000 125.4780000 124.9280000 208.5158080 126.0915671 125.7906329
 207.8300000 126.0300000 123.6730000 207.7210000 127.3440000 123.5260000
 207.4182653 127.6924088 122.6276328 207.9368459 127.9619837 124.2951607
 207.5440000 125.2530000 122.6150000 207.6520000 123.8980000 122.7260000
 207.3970000 123.1370000 121.7780000 210.2640000 121.2220000 124.8740000
 210.6715380 122.2015859 125.1238459 209.5060000 121.3090000 123.5610000
 210.2114875 121.4508064 122.7422952 208.9463955 120.3872008 123.4021629
 211.3450000 120.2850000 124.8020000 212.5620000 120.5590000 123.8390000
 213.3390000 119.3050000 123.6580000 213.3370000 121.7360000 124.2960000
 211.7980000 120.9110000 122.4870000 211.3590000 119.8460000 121.6290000
 210.3676303 119.5123895 121.9355782 212.0543761 119.0098066 121.7020289
 211.3030000 120.3180000 120.1870000 211.0603950 119.4805633 119.5328273
 210.1920000 121.2360000 120.0290000 210.5400000 122.2550000 119.1070000
 209.7749459 122.3211124 118.3334235 210.4480000 123.5670000 119.8060000
 210.6000000 123.6490000 121.1570000 210.7807606 122.7559337 121.7367914
 210.5280000 124.8420000 121.7940000 210.6759213 124.8931856 122.8727028
 210.2670000 125.9970000 120.9830000 210.1810000 127.1980000 121.5430000
 209.9962026 127.9857413 120.9385051 210.2986282 127.3042412 122.5404858
 210.1150000 125.9120000 119.6510000 210.2040000 124.6960000 119.0400000
 210.0700000 124.5640000 117.8120000 212.5160000 121.1170000 119.7130000
 212.8914460 121.7893992 120.4843743 211.9300000 121.9320000 118.5720000
 212.7338496 122.4319296 118.0316341 211.3917178 121.2716021 117.8921271
 213.5940000 120.2850000 119.2720000 214.9240000 120.9380000 118.7350000
 215.7150000 119.9150000 118.0020000 215.6380000 121.6440000 119.8250000
 214.3390000 121.9980000 117.7010000 214.0100000 121.5740000 116.3680000
 212.9864882 121.1998544 116.3447899 214.6885132 120.7778861 116.0615311
 214.1390000 122.7340000 115.3990000 213.9793943 122.3809500 114.3801865
 213.0600000 123.6730000 115.6310000 213.5240000 124.9960000 115.4300000
 212.9072049 125.5547461 114.7261066 213.3480000 125.7510000 116.7030000
 213.3150000 125.2570000 117.9750000 213.4730248 124.2031838 118.1507872
 213.1470000 126.1620000 118.8830000 213.0710000 127.3420000 118.1570000
 212.9030000 128.6850000 118.5460000 212.7690000 129.0760000 119.8200000
 212.6513220 130.0551405 120.0380299 212.7856294 128.3917086 120.5626760
 212.8660000 129.6080000 117.5660000 213.0010000 129.2180000 116.3060000
 212.9761483 129.9516257 115.5138039 213.1720000 128.0080000 115.8180000
 213.1940000 127.1030000 116.8210000 215.4040000 123.5770000 115.5500000
 215.6796048 123.7170678 116.5952377 214.9710000 124.9070000 114.9580000
 215.8386377 125.5584369 114.8534339 214.5221837 124.7405104 113.9787424
 216.5280000 123.0260000 114.8540000 217.9170000 123.7690000 114.8880000
 218.7910000 123.2300000 113.8140000 218.4880000 123.7480000 116.2550000
 217.4710000 125.2520000 114.5150000 217.3120000 125.6130000 113.1330000
 216.2989012 125.3787804 112.8060870 218.0210288 125.0500440 112.5259915
 217.5670000 127.0970000 112.9430000 217.5374818 127.3438218 111.8817239
 216.4690000 127.8470000 113.5210000 216.9590000 129.0440000 114.1010000
 216.3940994 129.8926122 113.7151971 216.6240000 129.0290000 115.5540000
 216.4490000 127.8520000 116.2170000 216.5423253 126.9139319 115.6900099
 216.1570000 127.8360000 117.5390000 216.0487902 126.8852508 118.0609835
 216.0210000 129.1070000 118.1900000 215.7330000 129.1650000 119.4840000
 215.6456954 130.0788919 119.9050465 215.6082609 128.3158120 120.0163733
 216.1920000 130.2670000 117.5320000 216.4970000 130.2470000 116.2030000
 216.6630000 131.2900000 115.5500000 218.8050000 127.6450000 113.6520000
 218.9476190 127.1983860 114.6360196 218.4530000 129.1140000 113.8090000
 219.3276707 129.6623706 114.1587713 218.1330679 129.5162343 112.8477762
 220.0060000 127.4650000 112.8930000 221.3820000 127.9820000 113.4640000
 222.3840000 128.0250000 112.3660000 221.7750000 127.2080000 114.6640000
 220.9900000 129.4660000 113.8850000 221.0100000 130.5080000 112.8960000
 220.0458715 130.5500429 112.3892568 221.7897673 130.2994708 112.1634844
 221.2900000 131.8490000 113.5470000 221.3960622 132.6158892 112.7797118
 220.1300000 132.2590000 114.3120000 220.5460000 132.9370000 115.4870000
 220.0651328 133.9103414 115.5843271 220.0290000 132.1880000 116.6670000
 219.7760000 130.8410000 116.5790000 219.9829365 130.3080228 115.6627507
 219.3160000 130.1560000 117.6310000 219.0180000 128.6860000 117.5930000
 219.9256158 128.1371294 117.3418541 218.6568470 128.3626059 118.5692606
 218.2547385 128.4888180 116.8402381 219.0650000 130.8090000 118.8980000
 218.6430000 130.2580000 119.9200000 219.3530000 132.1570000 118.8900000
 219.1795802 132.6979108 119.8202913 219.8330000 132.8940000 117.8200000
 220.0530000 134.0870000 117.9150000 222.4300000 131.8580000 114.5650000
 222.4452760 130.9530608 115.1724129 222.0650000 133.0470000 115.4370000
 222.8903555 133.2691157 116.1134260 221.8692916 133.9142445 114.8063769
 223.7170000 132.0190000 113.9580000 225.0100000 132.0630000 114.8590000
 226.1440000 132.6050000 114.0640000 225.2460000 130.7500000 115.5020000
 224.5730000 133.1300000 115.9560000 224.7210000 134.5310000 115.6760000
 223.8293575 134.8998167 115.1690011 225.5866705 134.6837754 115.0315042
 224.9200000 135.3080000 116.9630000 225.1249214 136.3536466 116.7333705
 223.6730000 135.3360000 117.7010000 223.9380000 135.2680000 119.0920000
 223.4275855 136.0871172 119.5985800 223.2730000 134.0490000 119.6350000
 223.0220000 132.9780000 118.8320000 223.2954318 133.0066881 117.7875806
 222.4290000 131.8650000 119.3250000 222.2597190 131.0064390 118.6751406
 222.0650000 131.8810000 120.7140000 221.4790000 130.8250000 121.2620000
 221.2391591 130.8768907 122.2417368 221.2856351 130.0043391 120.7059181
 222.3130000 132.9410000 121.5010000 222.9220000 134.0430000 120.9760000
 223.1720000 135.0490000 121.6610000 225.9200000 134.7030000 117.9470000
 225.8555522 133.6155110 117.9832339 225.4520000 135.2820000 119.2700000
 226.1849480 135.0576612 120.0449571 225.3425591 136.3624069 119.1759578
 227.2750000 135.0690000 117.6570000 228.4440000 134.5460000 118.5770000
 229.6700000 135.3430000 118.3150000 228.5920000 133.0770000 118.4500000
 227.8730000 134.9060000 120.0190000 228.0590000 136.2310000 120.5380000
 227.2402433 136.8716169 120.2103607 228.9999693 136.6379973 120.1678235
 228.0950000 136.2040000 122.0550000 228.3297356 137.1977151 122.4364823
 226.7640000 135.9270000 122.5580000 226.8500000 135.1220000 123.7220000
 226.2771494 135.5907101 124.5221577 226.1190000 133.8490000 123.4640000
 225.8780000 133.2230000 122.2660000 226.2392664 133.6585820 121.3461321
 225.1950000 132.1020000 122.3760000 224.9850000 131.9780000 123.7490000
 224.3080000 130.9720000 124.4790000 223.7480000 129.9620000 124.0700000
 224.3190000 131.2440000 125.8560000 223.8578258 130.5913618 126.4571491
 224.9120000 132.3470000 126.4480000 224.8170000 132.4330000 127.7740000
 224.3492683 131.7864288 128.3930905 225.2416846 133.2415745 128.2052206
 225.5480000 133.2970000 125.7570000 225.5440000 133.0430000 124.4200000
 228.9610000 135.1060000 122.6700000 228.8889908 134.1693495 122.1171896
 228.3290000 134.9350000 124.0400000 228.9575294 134.2885811 124.6525297
 228.2329289 135.9086600 124.5204755 230.3430000 135.4730000 122.7640000
 230.9149159 134.8036794 123.1467804
