default_name
 90315
  39.6861387  14.6157373  45.3792249  40.2511387  15.2077373  45.9722249
  40.2151387  14.3877373  44.5492249  39.2881387  13.8777373  45.9422249
  38.5561387  15.3937373  44.9122249  38.5861387  15.4147373  43.8232249
  37.6431387  14.8957373  45.2402249  38.5561387  16.8137373  45.4322249
  38.6761387  17.0407373  46.6272249  38.4291387  17.7757373  44.5252249
  38.3931387  17.5237373  43.5472249  38.3761387  19.1887373  44.8772249
  38.0991387  19.3097373  45.9242249  39.7181387  19.8997373  44.6382249
  40.0811387  19.6457373  43.6422249  39.5521387  21.3887373  44.7462249
  39.1901387  21.6427373  45.7422249  40.5121387  21.8757373  44.5742249
  38.8341387  21.7297373  44.0012249  40.7491387  19.4237373  45.6282249
  40.8921387  18.3487373  45.5162249  41.6931387  19.9367373  45.4452249
  40.4081387  19.6407373  46.6412249  37.2781387  19.8207373  44.0392249
  37.3241387  19.7587373  42.8072249  36.2891387  20.4157373  44.6952249
  36.3511387  20.5127373  45.6982249  35.0891387  20.9007373  44.0282249
  35.2221387  20.9327373  42.9472249  33.8671387  20.0187373  44.3482249
  33.7201387  19.9997373  45.4282249  32.6251387  20.5617373  43.6802249
  32.7711387  20.5807373  42.6002249  31.7741387  19.9237373  43.9202249
  32.4321387  21.5727373  44.0382249  34.1181387  18.5927373  43.9142249
  34.9871387  18.1997373  44.4412249  33.2451387  17.9827373  44.1472249
  34.3031387  18.5667373  42.8402249  34.8321387  22.3337373  44.4592249
  34.9941387  22.6707373  45.6342249  34.4331387  23.1707373  43.5112249
  34.4881387  22.8757373  42.5472249  33.9541387  24.5127373  43.7942249
  33.6561387  24.5987373  44.8392249  35.0261387  25.5587373  43.5052249
  35.3281387  25.4907373  42.4602249  34.6271387  26.5537373  43.7042249
  35.8901387  25.3807373  44.1452249  32.7191387  24.7677373  42.9492249
  32.6851387  24.3977373  41.7742249  31.7051387  25.3847373  43.5412249
  31.7901387  25.6937373  44.4992249  30.4401387  25.5977373  42.8592249
  30.6031387  25.6357373  41.7822249  29.4591387  24.4667373  43.1642249
  29.2781387  24.4217373  44.2382249  28.5181387  24.6517373  42.6452249
  29.8801387  23.5197373  42.8272249  29.8491387  26.9287373  43.2792249
  29.9101387  27.2937373  44.4542249  29.2741387  27.6447373  42.3212249
  29.3441387  27.3217373  41.3672249  28.5841387  28.8997373  42.5752249
  28.3551387  29.0007373  43.6362249  29.4341387  30.0947373  42.1422249
  29.6631387  30.0117373  41.0802249  28.8831387  31.0177373  42.3242249
  30.3621387  30.1077373  42.7142249  27.2591387  28.8787373  41.8302249
  27.2371387  28.9507373  40.6002249  26.1621387  28.7697373  42.5702249
  26.2491387  28.7177373  43.5752249  24.8321387  28.6837373  41.9882249
  24.9161387  28.6097373  40.9042249  24.0781387  27.4647373  42.5022249
  24.3571387  27.3367373  43.5482249  23.0151387  27.6977373  42.4362249
  24.3621387  26.1837373  41.7432249  23.5831387  25.4627373  41.9892249
  24.3181387  26.4167373  40.6792249  25.7171387  25.5947373  42.0752249
  26.0371387  25.4797373  43.2722249  26.4641387  25.2367373  41.1432249
  24.0311387  29.9397373  42.2992249  24.0771387  30.4567373  43.4172249
  23.2871387  30.4177373  41.3002249  23.4921387  30.1067373  40.3612249
  22.2461387  31.4317373  41.4832249  21.8271387  31.7077373  40.5152249
  21.1211387  30.8957373  42.3672249  21.5721387  30.6067373  43.3162249
  20.4251387  31.7187373  42.5312249  20.3791387  29.7197373  41.7852249
  19.8291387  30.0507373  40.9042249  21.1011387  28.9557373  41.4962249
  19.4111387  29.1427373  42.7962249  19.9831387  28.7247373  43.6242249
  18.7751387  29.9477373  43.1652249  18.5491387  28.0597373  42.1802249
  19.1901387  27.3917373  41.6052249  18.0691387  27.4997373  42.9832249
  17.5101387  28.6367373  41.2892249  17.9551387  29.1547373  40.5452249
  16.9531387  27.8917373  40.8952249  16.9161387  29.2557373  41.8222249
  22.8051387  32.7307373  42.0542249  22.4521387  33.1547373  43.1502249
  23.6731387  33.3757373  41.2902249  23.9821387  32.9627373  40.4222249
  24.2241387  34.6627373  41.6752249  23.7331387  34.9617373  42.6012249
  25.7341387  34.5817373  41.9252249  26.0751387  35.5277373  42.3452249
  26.0521387  33.4587373  42.8892249  25.7111387  32.5117373  42.4702249
  27.1281387  33.4157373  43.0552249  25.5451387  33.6387373  43.8372249
  26.3961387  34.2857373  40.6982249  27.3431387  34.2337373  40.8492249
  23.9391387  35.6637373  40.5662249  23.2281387  35.3667373  39.6062249
  24.4811387  36.8697373  40.7152249  24.7841387  37.2137373  41.6152249
  24.5981387  37.7537373  39.5632249  23.8681387  37.4677373  38.8062249
  24.3421387  39.2037373  39.9642249  25.0961387  39.4647373  40.7072249
  24.4891387  39.8097373  39.0702249  22.9711387  39.4657373  40.5282249
  22.8631387  38.8967373  41.4522249  22.8851387  40.5307373  40.7452249
  21.8871387  39.0607373  39.5592249  22.1561387  39.4117373  38.5632249
  21.8101387  37.9737373  39.5522249  20.5541387  39.6587373  39.9622249
  19.7881387  39.2887373  39.2812249  20.3221387  39.3367373  40.9772249
  20.5891387  41.1447373  39.9092249  20.8031387  41.4427373  38.9682249
  19.6891387  41.5127373  40.1822249  21.2991387  41.4877373  40.5412249
  25.9741387  37.6107373  38.9362249  26.1021387  37.4037373  37.7272249
  27.0141387  37.7047373  39.7542249  26.8451387  37.9707373  40.7142249
  28.3871387  37.4777373  39.3342249  28.4081387  37.2327373  38.2722249
  29.2411387  38.7217373  39.5652249  29.3241387  38.8677373  40.6422249
  30.2291387  38.5237373  39.1492249  28.6711387  39.9627373  38.9342249
  28.6741387  39.8427373  37.8512249  27.6461387  40.0917373  39.2822249
  29.4531387  41.1917373  39.2822249  29.9341387  41.3327373  40.3952249
  29.5911387  42.0917373  38.3312249  30.1091387  42.9387373  38.5132249
  29.1781387  41.9307373  37.4242249  28.9211387  36.2987373  40.1252249
  28.8381387  36.2887373  41.3542249  29.4471387  35.3047373  39.4282249
  29.5171387  35.3347373  38.4212249  29.9401387  34.1347373  40.1132249
  30.1011387  34.4027373  41.1572249  29.1721387  33.3637373  40.0502249
  31.2261387  33.5937373  39.5422249  31.3491387  33.4117373  38.3322249
  32.1911387  33.3267373  40.4072249  32.0421387  33.5427373  41.3822249
  33.4751387  32.7707373  40.0132249  33.4941387  32.5577373  38.9442249
  34.6441387  33.7177373  40.3472249  34.6711387  33.8877373  41.4232249
  35.9501387  33.1067373  39.9012249  35.9241387  32.9377373  38.8252249
  36.7691387  33.7837373  40.1422249  36.1011387  32.1567373  40.4142249
  34.4461387  35.0627373  39.6972249  33.5191387  35.5087373  40.0582249
  35.2831387  35.7147373  39.9472249  34.3921387  34.9397373  38.6152249
  33.6471387  31.4447373  40.7262249  33.3761387  31.3387373  41.9242249
  34.0891387  30.4347373  39.9912249  34.2241387  30.5567373  38.9972249
  34.3431387  29.1217373  40.5662249  34.3481387  29.1757373  41.6552249
  33.2871387  28.1117373  40.1332249  33.2761387  28.0397373  39.0452249
  33.5211387  27.1357373  40.5592249  32.3081387  28.4357373  40.4852249
  35.7321387  28.6827373  40.1362249  35.9801387  28.4747373  38.9472249
  36.6291387  28.5477373  41.1032249  36.3521387  28.7737373  42.0482249
  37.9981387  28.1187373  40.8712249  38.1331387  27.9057373  39.8102249
  39.0031387  29.1917373  41.2852249  38.4411387  30.0957373  41.5212249
  39.5131387  28.8367373  42.1802249  40.0151387  29.4967373  40.2212249
  39.5601387  29.3747373  39.2382249  40.3271387  30.5337373  40.3502249
  41.2321387  28.5817373  40.3352249  41.4131387  27.9697373  41.4072249
  41.9941387  28.4537373  39.3532249  38.2721387  26.8507373  41.6472249
  37.9451387  26.7617373  42.8322249  38.8911387  25.8857373  40.9872249
  39.0751387  25.9947373  40.0002249  39.2791387  24.6427373  41.6252249
  39.4001387  24.7857373  42.6992249  38.2311387  23.5597373  41.3932249
  38.1051387  23.3987373  40.3222249  38.5561387  22.6317373  41.8642249
  37.2821387  23.8737373  41.8272249  40.6281387  24.2197373  41.0752249
  40.8311387  24.2177373  39.8602249  41.5461387  23.8687373  41.9672249
  41.3111387  23.8697373  42.9492249  42.9041387  23.5127373  41.5822249
  42.9431387  23.2247373  40.5312249  43.8601387  24.6837373  41.8032249
  43.8391387  24.9777373  42.8522249  44.8721387  24.3837373  41.5312249
  43.5521387  25.5267373  41.1842249  43.3391387  22.3117373  42.3972249
  43.2641387  22.3407373  43.6262249  43.7971387  21.2647373  41.7252249
  43.8521387  21.2637373  40.7162249  44.2341387  20.0837373  42.4362249
  43.4471387  19.7867373  43.1292249  44.4001387  19.2857373  41.7122249
  45.5101387  20.3167373  43.2122249  45.5021387  20.3547373  44.4422249
  46.6141387  20.4767373  42.5012249  46.5811387  20.3287373  41.5022249
  47.8851387  20.8287373  43.1022249  47.7561387  20.9247373  44.1802249
  48.9531387  19.7717373  42.8312249  49.0781387  19.7187373  41.7492249
  49.8761387  20.1317373  43.2852249  48.6311387  18.4047373  43.3662249
  48.2351387  18.4997373  44.3772249  47.8831387  17.9367373  42.7262249
  49.8801387  17.5497373  43.3912249  50.3811387  17.6447373  42.4282249
  50.5351387  17.9207373  44.1792249  49.5551387  16.0907373  43.6492249
  49.0851387  16.0097373  44.6292249  48.8581387  15.7517373  42.8832249
  50.7781387  15.2447373  43.6152249  51.4241387  15.5587373  44.3252249
  50.5271387  14.2827373  43.7902249  51.2141387  15.3187373  42.7072249
  48.3381387  22.1677373  42.5482249  47.9151387  22.5927373  41.4732249
  49.2001387  22.8387373  43.3012249  49.4891387  22.4837373  44.2012249
  49.7291387  24.1187373  42.8632249  49.8561387  24.1097373  41.7802249
  48.7981387  25.2727373  43.2362249  48.7851387  25.3837373  44.3202249
  49.2781387  26.5627373  42.6022249  49.2901387  26.4527373  41.5182249
  48.6051387  27.3757373  42.8762249  50.2841387  26.7897373  42.9552249
  47.4721387  24.9907373  42.7822249  46.8911387  25.7177373  43.0182249
  51.0871387  24.3227373  43.5032249  51.2281387  24.1797373  44.7182249
  52.0771387  24.6447373  42.6872249  51.9201387  24.5987373  41.6902249
  53.3981387  25.0297373  43.1602249  53.3961387  25.0557373  44.2502249
  54.4681387  24.0467373  42.6982249  54.2411387  23.7847373  41.6642249
  55.4251387  24.5677373  42.7392249  54.5441387  22.7897373  43.5302249
  54.4921387  23.0667373  44.5832249  53.6941387  22.1547373  43.2792249
  55.8301387  22.0357373  43.2702249  55.8631387  21.7547373  42.2172249
  56.6711387  22.6907373  43.4972249  55.9151387  20.7877373  44.1302249
  55.8591387  21.0897373  45.1762249  55.0641387  20.1497373  43.8902249
  57.1791387  20.0367373  43.8982249  57.9671387  20.6277373  44.1202249
  57.1961387  19.2167373  44.4872249  57.2311387  19.7567373  42.9292249
  53.6661387  26.4227373  42.6252249  53.8451387  26.6037373  41.4192249
  53.6721387  27.4027373  43.5102249  53.4281387  27.2517373  44.4782249
  53.9831387  28.7497373  43.0832249  53.4711387  28.9697373  42.1462249
  53.5291387  29.7537373  44.1342249  53.9081387  29.4177373  45.0992249
  53.9731387  30.7177373  43.8852249  52.0351387  29.8947373  44.2052249
  51.5921387  28.8997373  44.2542249  51.7891387  30.4457373  45.1132249
  51.4891387  30.6287373  43.0092249  52.2161387  31.4887373  42.4742249
  50.3451387  30.3467373  42.5992249  55.4751387  28.8807373  42.8202249
  56.2851387  28.0717373  43.2712249  55.8341387  29.9167373  42.0662249
  55.1271387  30.5647373  41.7482249  57.1961387  30.1537373  41.6832249
  57.7801387  29.2677373  41.9312249  57.2251387  30.3177373  40.6062249
  57.8001387  31.3527373  42.3802249  57.2941387  31.8417373  43.3962249
  58.9031387  31.8307373  41.8242249  59.2951387  31.3467373  41.0292249
  59.5991387  33.0037373  42.3282249  59.3481387  33.2037373  43.3702249
  61.1201387  32.8327373  42.2142249  61.4031387  32.8707373  41.1622249
  61.8321387  33.9257373  42.9652249  61.5501387  33.8877373  44.0172249
  62.9091387  33.7877373  42.8732249  61.5531387  34.8937373  42.5492249
  61.5281387  31.4757373  42.7312249  61.0361387  30.6997373  42.1452249
  62.6091387  31.3637373  42.6462249  61.2351387  31.3817373  43.7772249
  59.1291387  34.2017373  41.5302249  58.8431387  34.0817373  40.3372249
  59.0321387  35.3547373  42.1732249  59.0911387  35.3917373  43.1812249
  58.7311387  36.5797373  41.4562249  59.1851387  36.5427373  40.4662249
  57.2201387  36.7677373  41.2942249  57.2001387  37.6967373  40.7242249
  56.9781387  35.9337373  40.6362249  56.1981387  36.8397373  42.4162249
  56.5311387  36.2027373  43.2352249  56.0431387  38.2457373  42.9092249
  55.7101387  38.8837373  42.0902249  55.3061387  38.2707373  43.7122249
  57.0001387  38.6077373  43.2842249  54.8771387  36.3387373  41.8932249
  54.9861387  35.3077373  41.5562249  54.1311387  36.3837373  42.6862249
  54.5561387  36.9617373  41.0582249  59.3811387  37.7697373  42.1412249
  59.1861387  37.9917373  43.3362249  60.1751387  38.5077373  41.3782249
  60.3391387  38.1937373  40.4322249  60.8171387  39.7347373  41.8182249
  60.8001387  39.7767373  42.9072249  62.2691387  39.8137373  41.3492249
  62.2541387  39.9187373  40.2642249  62.6541387  40.7297373  41.7972249
  63.1551387  38.6597373  41.7292249  63.0141387  37.4247373  41.1332249
  62.2391387  37.2887373  40.3782249  63.8231387  36.3847373  41.4732249
  63.6931387  35.4097373  41.0042249  64.8051387  36.5687373  42.4082249
  65.6251387  35.5267373  42.7522249  65.4221387  34.7177373  42.2772249
  64.9751387  37.7837373  43.0042249  65.7571387  37.9287373  43.7492249
  64.1581387  38.8207373  42.6622249  64.2921387  39.7967373  43.1282249
  60.0331387  40.8847373  41.2262249  59.9031387  40.9767373  40.0052249
  59.5171387  41.7587373  42.0752249  59.6361387  41.6197373  43.0682249
  58.7261387  42.8937373  41.6282249  58.7401387  42.9557373  40.5402249
  57.2711387  42.7877373  42.0932249  57.2371387  42.8777373  43.1792249
  56.4441387  43.8777373  41.4742249  56.4771387  43.7877373  40.3882249
  55.4121387  43.7897373  41.8142249  56.8411387  44.8487373  41.7702249
  56.7211387  41.4537373  41.7132249  57.3111387  40.6687373  42.1862249
  55.6851387  41.3797373  42.0442249  56.7651387  41.3367373  40.6302249
  59.3831387  44.1537373  42.1532249  59.4471387  44.3637373  43.3672249
  59.8721387  44.9887373  41.2472249  59.7721387  44.8007373  40.2602249
  60.5621387  46.1897373  41.6482249  60.8451387  46.7197373  40.7382249
  59.8551387  46.7947373  42.2152249  61.7921387  45.9617373  42.4842249
  62.1181387  46.8047373  43.3182249  62.4931387  44.8537373  42.2822249
  62.2131387  44.2227373  41.5452249  63.6181387  44.4787373  43.1192249
  63.6551387  45.1177373  44.0012249  63.4751387  43.0337373  43.5712249
  63.2391387  42.4127373  42.7072249  64.4171387  42.7027373  44.0092249
  62.4481387  42.9187373  44.5262249  62.3691387  42.0027373  44.8022249
  64.9451387  44.6757373  42.3962249  65.0031387  44.9477373  41.1992249
  66.0271387  44.5327373  43.1562249  65.9061387  44.3057373  44.1332249
  67.3811387  44.7077373  42.6502249  67.3791387  44.6027373  41.5652249
  67.9301387  46.0847373  43.0052249  67.7101387  46.2457373  44.0602249
  69.0101387  46.0357373  42.8632249  67.3721387  47.2167373  42.2022249
  67.3791387  46.9557373  41.1442249  66.3491387  47.4227373  42.5182249
  68.2211387  48.4397373  42.4222249  68.3551387  48.5727373  43.4962249
  69.1911387  48.2697373  41.9542249  67.5921387  49.6767373  41.8382249
  67.4601387  49.5367373  40.7652249  66.6201387  49.8367373  42.3052249
  68.4571387  50.8577373  42.0802249  69.3571387  50.7097373  41.6472249
  68.0241387  51.6797373  41.6842249  68.5791387  50.9877373  43.0742249
  68.2611387  43.6297373  43.2542249  68.3191387  43.4937373  44.4762249
  68.9481387  42.8727373  42.4132249  68.8231387  42.9967373  41.4192249
  69.8531387  41.8317373  42.8682249  69.8131387  41.7847373  43.9562249
  69.4501387  40.4687373  42.3052249  69.6561387  40.4537373  41.2352249
  70.2241387  39.3637373  42.9812249  70.0181387  39.3777373  44.0512249
  69.9231387  38.4017373  42.5662249  71.2911387  39.5127373  42.8152249
  68.0581387  40.2497373  42.5472249  67.8031387  39.3937373  42.1942249
  71.2721387  42.1767373  42.4472249  71.4851387  42.7907373  41.4002249
  72.2371387  41.8057373  43.2832249  71.9811387  41.4057373  44.1742249
  73.6551387  41.9797373  42.9842249  73.7861387  42.0847373  41.9072249
  74.2221387  43.2187373  43.6672249  73.8451387  43.2267373  44.6902249
  75.3071387  43.1137373  43.6812249  73.8551387  44.4967373  42.9922249
  73.9751387  44.3707373  41.9162249  72.8131387  44.7237373  43.2172249
  74.7231387  45.6217373  43.4622249  74.8871387  45.5237373  44.5352249
  75.6801387  45.5767373  42.9432249  74.0591387  46.9427373  43.1752249
  73.7721387  46.9567373  42.1242249  73.1661387  47.0157373  43.7962249
  74.9521387  48.0897373  43.4582249  75.7791387  48.0227373  42.8822249
  74.4681387  48.9517373  43.2522249  75.2181387  48.0767373  44.4322249
  74.3801387  40.7327373  43.4532249  74.5261387  40.5227373  44.6572249
  74.8351387  39.9097373  42.5162249  74.6651387  40.1267373  41.5442249
  75.5381387  38.6717373  42.8362249  75.6821387  38.6067373  43.9142249
  74.7511387  37.4497373  42.3752249  74.6481387  37.5217373  41.2922249
  75.3451387  36.5707373  42.6252249  73.3881387  37.3287373  43.0012249
  73.5051387  37.4087373  44.0822249  72.7811387  38.1587373  42.6392249
  72.7061387  36.0207373  42.6632249  73.4121387  35.0447373  42.3472249
  71.4621387  35.9657373  42.7162249  76.9051387  38.7087373  42.1762249
  77.0021387  38.7057373  40.9482249  77.9561387  38.7277373  42.9842249
  77.8401387  38.6877373  43.9862249  79.2971387  38.8057373  42.4532249
  80.0041387  38.6967373  43.2762249  79.4381387  37.9907373  41.7432249
  79.5571387  40.1177373  41.7532249  79.7401387  40.1457373  40.5402249
  79.5741387  41.2147373  42.4932249  79.4451387  41.1437373  43.4922249
  79.7241387  42.5377373  41.9102249  80.0061387  42.4787373  40.8592249
  78.4251387  43.3587373  42.0262249  78.0581387  43.2877373  43.0502249
  78.6641387  44.8087373  41.6762249  79.0311387  44.8797373  40.6522249
  77.7301387  45.3637373  41.7672249  79.4041387  45.2297373  42.3562249
  77.3581387  42.7747373  41.1362249  77.1571387  41.7457373  41.4362249
  76.4451387  43.3637373  41.2272249  77.6991387  42.7917373  40.1012249
  80.8721387  43.2427373  42.6092249  80.9791387  43.1947373  43.8362249
  81.7391387  43.8797373  41.8332249  81.7001387  43.7327373  40.8352249
  82.7821387  44.7447373  42.3632249  82.7771387  44.6997373  43.4522249
  84.1761387  44.3447373  41.8622249  84.1221387  44.1047373  40.8002249
  85.1371387  45.4757373  42.0702249  85.1921387  45.7157373  43.1322249
  86.1251387  45.1847373  41.7122249  84.7941387  46.3507373  41.5182249
  84.6651387  43.1277373  42.5982249  83.9761387  42.2997373  42.4312249
  85.6551387  42.8547373  42.2332249  84.7191387  43.3447373  43.6652249
  82.4361387  46.1647373  41.9562249  82.3601387  46.4777373  40.7642249
  82.2191387  47.0187373  42.9442249  82.3711387  46.7087373  43.8932249
  81.7461387  48.3737373  42.7302249  81.7071387  48.5917373  41.6632249
  80.3411387  48.5357373  43.3142249  79.6721387  47.7417373  42.9822249
  80.4271387  48.5077373  44.4002249  79.6721387  49.8297373  42.9712249
  80.3181387  51.0437373  43.0152249  79.4761387  52.0027373  42.6822249
  79.8031387  53.0417373  42.6452249  78.3011387  51.4567373  42.4392249
  77.4631387  51.9487373  42.1642249  78.3941387  50.0997373  42.6192249
  77.5171387  49.4687373  42.4722249  82.7171387  49.3337373  43.3912249
  82.9951387  49.2077373  44.5842249  83.2391387  50.2777373  42.6212249
  83.0931387  50.2627373  41.6222249  84.0301387  51.3537373  43.1842249
  84.2481387  52.0407373  42.3662249  83.3981387  51.8527373  43.9192249
  85.3301387  50.9477373  43.8462249  85.4711387  51.0747373  45.0612249
  86.2921387  50.4627373  43.0712249  86.0851387  50.2697373  42.1012249
  87.6241387  50.1447373  43.5702249  87.6631387  50.2547373  44.6542249
  88.0351387  48.7107373  43.2072249  87.8771387  48.5547373  42.1402249
  89.4851387  48.4827373  43.5382249  89.6431387  48.6387373  44.6052249
  89.7621387  47.4617373  43.2752249  90.1011387  49.1827373  42.9742249
  87.1771387  47.7307373  43.9492249  86.1321387  47.8847373  43.6792249
  87.4741387  46.7157373  43.6872249  87.3001387  47.8787373  45.0222249
  88.5951387  51.1587373  42.9902249  88.5821387  51.4147373  41.7832249
  89.4251387  51.7447373  43.8462249  89.3731387  51.5087373  44.8272249
  90.3881387  52.7567373  43.4282249  90.4981387  52.7417373  42.3442249
  89.9421387  54.1547373  43.8542249  89.8361387  54.1877373  44.9382249
  90.6871387  54.8857373  43.5402249  88.9851387  54.3887373  43.3882249
  91.7441387  52.4267373  44.0272249  91.9101387  52.4737373  45.2462249
  92.7061387  52.0967373  43.1742249  92.4811387  52.0247373  42.1922249
  94.0671387  51.8037373  43.5932249  94.1351387  51.8717373  44.6792249
  94.4941387  50.4057373  43.1652249  94.6001387  50.3817373  42.0802249
  95.8161387  50.0387373  43.8092249  95.7111387  50.0617373  44.8942249
  96.1091387  49.0367373  43.4942249  96.5801387  50.7527373  43.5032249
  93.4991387  49.4597373  43.5642249  93.7691387  48.5787373  43.2942249
  95.0151387  52.8297373  42.9962249  94.9201387  53.1557373  41.8132249
  95.9271387  53.3367373  43.8182249  95.9131387  53.0527373  44.7872249
  96.9221387  54.3127373  43.3992249  96.9101387  54.4257373  42.3152249
  96.6941387  55.6857373  44.0372249  96.6431387  55.5717373  45.1202249
  97.8241387  56.6217373  43.6822249  97.8751387  56.7367373  42.5992249
  97.6491387  57.5947373  44.1422249  98.7651387  56.2107373  44.0482249
  95.3831387  56.2547373  43.5792249  94.5741387  55.5857373  43.8712249
  95.2301387  57.2317373  44.0382249  95.3921387  56.3607373  42.4942249
  98.2821387  53.7567373  43.7852249  98.5721387  53.5897373  44.9732249
  99.1121387  53.4677373  42.7882249  98.8201387  53.6607373  41.8402249
 100.4161387  52.8487373  42.9982249 100.7121387  52.9137373  44.0452249
 100.3981387  51.3817373  42.5882249 100.1121387  51.3007373  41.5392249
 101.3901387  50.9527373  42.7282249  99.6791387  50.8407373  43.2032249
 101.4451387  53.6187373  42.1892249 101.5271387  53.4507373  40.9712249
 102.2421387  54.4457373  42.8642249 102.1681387  54.5557373  43.8652249
 103.2041387  55.2757373  42.1472249 102.7081387  55.7987373  41.3292249
 103.8121387  56.3117373  43.0912249 103.0511387  56.5737373  43.8262249
 104.6571387  55.8427373  43.5952249 104.2801387  57.5627373  42.3822249
 105.1551387  57.3047373  41.7862249 103.4731387  57.8827373  41.7232249
 104.6321387  58.6897373  43.3332249 105.6841387  59.3317373  43.1272249
 103.8621387  58.9457373  44.2812249 104.3011387  54.4397373  41.4952249
 104.9031387  54.8657373  40.5072249 104.5691387  53.2527373  42.0232249
 103.9481387  52.8757373  42.7252249 105.7371387  52.4687373  41.6402249
 106.0181387  52.6987373  40.6122249 106.9221387  52.7967373  42.5572249
 107.2771387  53.7817373  42.2552249 106.5191387  52.8507373  43.5682249
 108.0761387  51.8117373  42.5252249 107.9081387  51.0377373  43.2742249
 108.1311387  51.3547373  41.5372249 109.3911387  52.5347373  42.8262249
 109.6951387  53.0787373  41.9322249 109.2161387  53.2407373  43.6382249
 110.5001387  51.5567373  43.2302249 110.5261387  50.7697373  42.4762249
 111.4401387  52.1087373  43.2112249 110.3101387  50.9507373  44.5712249
 109.4401387  50.4387373  44.5892249 111.0751387  50.3207373  44.7672249
 110.2861387  51.6797373  45.2702249 105.4021387  50.9947373  41.7452249
 105.1451387  50.4987373  42.8432249 105.3991387  50.2977373  40.6012249
 105.7021387  50.7307373  39.7412249 105.0011387  48.8617373  40.5672249
 104.9701387  48.4547373  41.5782249 103.6151387  48.7007373  39.9322249
 103.4021387  47.6327373  39.8842249 102.5131387  49.3997373  40.6922249
 102.7251387  50.4677373  40.7402249 101.5621387  49.2407373  40.1832249
 102.4551387  48.9957373  41.7032249 103.6571387  49.2367373  38.6102249
 102.7941387  49.1427373  38.1992249 105.9571387  48.0257373  39.7082249
 106.0841387  48.3247373  38.5092249 106.5741387  46.9937373  40.2872249
 106.4721387  46.8207373  41.2772249 107.4281387  46.0707373  39.4952249
 107.3681387  46.3217373  38.4362249 108.8851387  46.1927373  39.9452249
 109.1751387  47.2317373  39.7882249 108.9021387  45.9687373  41.0122249
 109.8621387  45.2787373  39.2192249 109.5261387  44.2537373  39.3722249
 109.8111387  45.5227373  38.1582249 111.2891387  45.4177373  39.7002249
 111.5951387  46.4517373  39.5382249 111.3021387  45.1987373  40.7682249
 112.2461387  44.4907373  38.9832249 111.9151387  43.4647373  39.1422249
 112.2161387  44.7217373  37.9182249 113.6331387  44.6447373  39.4822249
 113.6621387  44.4307373  40.4692249 114.2431387  44.0127373  38.9832249
 113.9401387  45.5957373  39.3352249 106.9301387  44.6417373  39.7242249
 106.9131387  44.2087373  40.8842249 106.6251387  43.9147373  38.6482249
 106.7621387  44.2937373  37.7222249 106.1161387  42.5267373  38.7722249
 106.0271387  42.2317373  39.8182249 104.7311387  42.4827373  38.1342249
 104.8531387  42.6397373  37.0622249 104.3151387  41.4907373  38.3102249
 103.7911387  43.5317373  38.6942249 103.6701387  43.2617373  39.7432249
 104.2741387  44.5067373  38.6242249 102.4291387  43.5937373  38.0282249
 102.1361387  42.7117373  37.1992249 101.6871387  44.5537373  38.3062249
 107.0511387  41.5847373  38.0102249 107.2541387  41.8147373  36.8082249
 107.5611387  40.5437373  38.6692249 107.3821387  40.4367373  39.6572249
 108.4201387  39.5347373  37.9952249 108.4541387  39.7157373  36.9212249
 109.8361387  39.6427373  38.5522249 110.1861387  40.6557373  38.3542249
 109.7741387  39.4837373  39.6292249 110.8111387  38.6437373  37.9482249
 110.4591387  37.6327373  38.1532249 110.8701387  38.7957373  36.8702249
 112.1921387  38.8007373  38.5332249 113.1131387  38.0567373  38.2072249
 112.3421387  39.7757373  39.4142249 113.2441387  39.9317373  39.8422249
 111.5541387  40.3597373  39.6552249 107.8231387  38.1477373  38.2512249
 107.6891387  37.7867373  39.4262249 107.5631387  37.3707373  37.1972249
 107.7771387  37.6847373  36.2612249 106.8971387  36.0467373  37.3642249
 106.9141387  35.6737373  38.3882249 105.4331387  36.1037373  36.8852249
 105.4191387  36.4907373  35.8662249 104.7791387  34.7317373  36.9142249
 104.7921387  34.3437373  37.9332249 103.7481387  34.8127373  36.5702249
 105.3281387  34.0537373  36.2612249 104.6061387  37.1097373  37.6692249
 105.0371387  38.1037373  37.5532249 103.5831387  37.1117373  37.2932249
 104.6041387  36.8357373  38.7242249 107.6631387  34.9627373  36.6042249
 107.7781387  35.0877373  35.3762249 108.0761387  33.8957373  37.2882249
 107.9531387  33.8917373  38.2902249 108.7281387  32.7527373  36.6692249
 108.7841387  32.9067373  35.5912249 110.1421387  32.5587373  37.2082249
 110.0851387  32.2787373  38.2602249 110.8591387  31.4747373  36.4362249
 110.9171387  31.7547373  35.3842249 111.8661387  31.3497373  36.8342249
 110.3121387  30.5367373  36.5322249 110.8681387  33.7857373  37.0802249
 111.7591387  33.6677373  37.4182249 107.8521387  31.5447373  36.9592249
 107.8761387  31.0057373  38.0672249 107.0711387  31.1307373  35.9742249
 107.1511387  31.5557373  35.0612249 106.0661387  30.1037373  36.1692249
 106.0371387  29.8147373  37.2202249 104.6851387  30.6107373  35.7652249
 104.4001387  31.4177373  36.4402249 104.7311387  30.9907373  34.7442249
 103.6351387  29.5357373  35.8312249 103.6601387  28.6847373  36.7122249
 102.7041387  29.5627373  34.8942249 101.9751387  28.8637373  34.8912249
 102.7261387  30.2817373  34.1852249 106.4251387  28.8727373  35.3592249
 106.9101387  28.9817373  34.2322249 106.1861387  27.7017373  35.9412249
 105.8611387  27.6947373  36.8972249 106.4121387  26.4237373  35.2792249
 106.4551387  26.5537373  34.1982249 107.7021387  25.7397373  35.7412249
 107.6861387  25.6397373  36.8262249 107.8171387  24.3687373  35.1102249
 107.8331387  24.4677373  34.0252249 108.7371387  23.8907373  35.4452249
 106.9631387  23.7597373  35.4062249 108.9081387  26.5827373  35.3972249
 108.8281387  27.5517373  35.8902249 109.8131387  26.0777373  35.7342249
 108.9541387  26.7277373  34.3182249 105.2001387  25.5517373  35.5742249
 105.0661387  25.0177373  36.6782249 104.3181387  25.3977373  34.5922249
 104.4261387  25.8947373  33.7192249 103.1811387  24.5167373  34.7442249
 102.7121387  24.4357373  33.7642249 103.5741387  23.5437373  35.0392249
 102.1441387  24.9547373  35.7512249 101.2801387  24.1527373  36.1122249
 102.1941387  26.1987373  36.2132249 102.8911387  26.8497373  35.8802249
 101.2491387  26.6547373  37.2082249 100.5781387  25.8267373  37.4382249
 101.8091387  26.9267373  38.1032249 100.4291387  27.8417373  36.7612249
 100.4941387  28.2477373  35.6002249  99.6561387  28.4107373  37.6812249
  99.6661387  28.0297373  38.6162249  98.7681387  29.5297373  37.4012249
  98.8821387  29.8627373  36.3702249  97.3111387  29.1367373  37.6282249
  97.1791387  28.8087373  38.6592249  96.6681387  29.9957373  37.4352249
  97.0441387  28.3247373  36.9522249  99.1541387  30.6927373  38.2972249
  99.1951387  30.5457373  39.5192249  99.4391387  31.8397373  37.6952249
  99.4041387  31.8907373  36.6872249  99.8511387  33.0257373  38.4322249
  99.6451387  32.9047373  39.4962249 101.3501387  33.3237373  38.2522249
 101.5701387  33.4177373  37.1892249 101.7141387  34.6037373  38.9542249
 101.4951387  34.5107373  40.0182249 102.7771387  34.8027373  38.8192249
 101.1341387  35.4257373  38.5352249 102.1791387  32.1867373  38.7892249
 101.9321387  31.2707373  38.2522249 103.2371387  32.4127373  38.6542249
 101.9691387  32.0527373  39.8502249  99.0161387  34.2057373  37.9632249
  98.8471387  34.4107373  36.7582249  98.4861387  34.9687373  38.9152249
  98.5591387  34.6567373  39.8732249  97.7801387  36.2127373  38.6462249
  97.9191387  36.5267373  37.6122249  96.2711387  36.0947373  38.9262249
  96.1131387  35.9957373  40.0002249  95.5541387  37.3207373  38.4242249
  95.7121387  37.4197373  37.3502249  94.4871387  37.2267373  38.6272249
  95.9441387  38.2037373  38.9312249  95.7021387  34.8507373  38.2902249
  96.2041387  33.9727373  38.6962249  94.6351387  34.7897373  38.5022249
  95.8561387  34.8897373  37.2122249  98.3951387  37.2887373  39.5212249
  98.4551387  37.1337373  40.7432249  98.8661387  38.3687373  38.9062249
  98.8261387  38.4377373  37.8992249  99.4901387  39.4537373  39.6472249
  99.2541387  39.3547373  40.7072249 101.0161387  39.4627373  39.4832249
 101.4351387  40.2057373  40.1622249 101.6091387  38.1037373  39.7952249
 101.1911387  37.3597373  39.1162249 102.6911387  38.1417373  39.6702249
 101.3721387  37.8307373  40.8232249 101.3521387  39.8227373  38.1402249
 102.3071387  39.8277373  38.0392249  98.9051387  40.7717373  39.1722249
  98.0071387  40.8107373  38.3312249  99.4251387  41.8587373  39.7192249
 100.1361387  41.7777373  40.4322249  99.0001387  43.1837373  39.3222249
  99.8271387  43.8727373  39.4932249  98.7611387  43.1607373  38.2592249
  97.7871387  43.6697373  40.0892249  97.5171387  43.2717373  41.2232249
  97.0401387  44.5517373  39.4382249  97.3411387  44.8727373  38.5292249
  95.8241387  45.1197373  40.0032249  95.7891387  44.9417373  41.0782249
  95.7561387  46.6307373  39.7542249  95.8581387  46.8237373  38.6862249
  94.4431387  47.1707373  40.2362249  94.3401387  46.9787373  41.3042249
  94.4031387  48.2447373  40.0552249  93.6301387  46.6817373  39.7002249
  96.8841387  47.3237373  40.4752249  97.8381387  46.9427373  40.1102249
  96.8281387  48.3967373  40.2922249  96.8031387  47.1327373  41.5452249
  94.6331387  44.4037373  39.3862249  94.2921387  44.6327373  38.2242249
  94.0031387  43.5307373  40.1632249  94.3041387  43.4317373  41.1222249
  92.9271387  42.6757373  39.6862249  92.8161387  42.7647373  38.6052249
  93.2091387  41.2137373  40.0292249  93.3381387  41.1287373  41.1082249
  92.0801387  40.3197373  39.5872249  91.9511387  40.4037373  38.5082249
  92.3121387  39.2867373  39.8462249  91.1601387  40.6217373  40.0872249
  94.4211387  40.8057373  39.3892249  94.6021387  39.8877373  39.6022249
  91.6051387  43.1127373  40.2932249  91.4871387  43.2197373  41.5182249
  90.6191387  43.3697373  39.4362249  90.8491387  43.4507373  38.4562249
  89.2341387  43.5767373  39.8402249  89.1021387  43.4157373  40.9102249
  88.7631387  44.9847373  39.4972249  88.8811387  45.1577373  38.4272249
  87.7131387  45.0937373  39.7692249  89.3581387  45.7117373  40.0492249
  88.3981387  42.5277373  39.1262249  88.0931387  42.6767373  37.9412249
  88.0291387  41.4707373  39.8372249  88.2331387  41.4507373  40.8262249
  87.3781387  40.3127373  39.2432249  87.2111387  40.4597373  38.1762249
  88.2101387  39.0377373  39.4382249  88.4141387  38.9027373  40.5002249
  87.4581387  37.8437373  38.9172249  87.2541387  37.9777373  37.8552249
  88.0581387  36.9447373  39.0612249  86.5171387  37.7417373  39.4582249
  89.5301387  39.1777373  38.7432249  90.0721387  40.0267373  39.1592249
  90.1151387  38.2687373  38.8862249  89.3651387  39.3387373  37.6782249
  86.0041387  40.1437373  39.8632249  85.8751387  40.1047373  41.0882249
  84.9861387  40.0297373  39.0202249  85.1521387  40.1727373  38.0342249
  83.6281387  39.7417373  39.4562249  83.5951387  39.5637373  40.5312249
  82.6861387  40.8947373  39.1242249  82.7011387  41.0797373  38.0502249
  81.6731387  40.6377373  39.4332249  83.0101387  41.7927373  39.6512249
  83.1751387  38.4667373  38.7742249  83.0841387  38.4197373  37.5472249
  82.8961387  37.4397373  39.5592249  82.9321387  37.5507373  40.5622249
  82.5561387  36.1337373  39.0232249  82.5331387  36.1847373  37.9342249
  83.5691387  35.0857373  39.4382249  83.6541387  35.1367373  40.5232249
  83.1601387  34.1167373  39.1522249  84.9151387  35.2567373  38.8262249
  84.7941387  35.5357373  37.7792249  85.4581387  36.0427373  39.3512249
  85.7161387  33.9927373  38.8952249  86.7001387  33.8317373  38.1852249
  85.2941387  33.0777373  39.7492249  85.7951387  32.2057373  39.8382249
  84.4721387  33.2547373  40.3092249  81.1851387  35.7007373  39.5012249
  80.7971387  35.9727373  40.6372249  80.4661387  35.0057373  38.6312249
  80.7891387  34.9327373  37.6772249  79.1991387  34.3757373  38.9812249
  79.1461387  34.2477373  40.0622249  78.0151387  35.2197373  38.5332249
  77.9731387  36.0817373  39.1992249  78.2331387  35.5547373  37.5192249
  76.6841387  34.5037373  38.5512249  75.9821387  35.0787373  37.9482249
  76.8231387  33.5187373  38.1052249  76.1431387  34.3517373  39.9352249
  76.9661387  34.0967373  40.6032249  75.7061387  35.3017373  40.2432249
  75.0891387  33.2687373  39.9982249  75.5371387  32.3367373  39.6542249
  74.7751387  33.1587373  41.0362249  73.9111387  33.5897373  39.1572249
  74.2021387  33.6907373  38.1952249  73.2341387  32.8437373  39.2272249
  73.4951387  34.4527373  39.4762249  79.2101387  33.0087373  38.3122249
  78.8831387  32.8877373  37.1322249  79.6211387  31.9937373  39.0542249
  79.9161387  32.1747373  40.0032249  79.6951387  30.6297373  38.5572249
  79.6301387  30.6347373  37.4692249  81.0091387  29.9667373  38.9652249
  80.9511387  29.6797373  40.0152249  81.2641387  28.7437373  38.1242249
  81.3231387  29.0297373  37.0742249  82.2041387  28.2827373  38.4272249
  80.4501387  28.0317373  38.2612249  82.0841387  30.8907373  38.7822249
  82.9101387  30.4747373  39.0382249  78.5191387  29.8487373  39.1122249
  78.2381387  29.9207373  40.3092249  77.8361387  29.0997373  38.2552249
  78.0911387  29.0297373  37.2802249  76.6211387  28.4347373  38.6992249
  76.2681387  28.8747373  39.6322249  75.5051387  28.5467373  37.6512249
  75.9201387  28.3447373  36.6642249  74.4111387  27.5527373  37.9492249
  73.9951387  27.7547373  38.9362249  73.6251387  27.6417373  37.1992249
  74.8211387  26.5427373  37.9272249  74.9471387  29.9467373  37.6552249
  75.7401387  30.6557373  37.4162249  74.1551387  30.0247373  36.9102249
  74.5421387  30.1737373  38.6412249  76.8991387  26.9827373  39.0582249
  76.6841387  26.5717373  40.2032249  77.3801387  26.1897373  38.1142249
  77.5651387  26.5177373  37.1772249  77.5541387  24.7697373  38.3962249
  77.4671387  24.5947373  39.4682249  76.4931387  23.9457373  37.6812249
  75.5721387  24.5287373  37.6732249  76.8311387  23.7887373  36.6572249
  76.2371387  22.6057373  38.3392249  77.0291387  21.9277373  38.0202249
  76.2861387  22.7387373  39.4202249  74.8931387  22.0217373  37.9642249
  74.0261387  22.7867373  37.4942249  74.6961387  20.8027373  38.1472249
  78.9591387  24.3197373  38.0372249  79.1721387  23.3117373  37.3632249
  79.9461387  25.0777373  38.4962249  79.7381387  25.9297373  38.9972249
  81.3341387  24.7177373  38.3002249  81.4661387  23.6467373  38.4532249
  81.6481387  24.9817373  37.2902249  82.1921387  25.4657373  39.2932249
  81.7041387  26.2697373  40.0882249  83.4871387  25.1887373  39.2422249
  83.8431387  24.4927373  38.6022249  84.4251387  25.8467373  40.1362249
  84.0031387  25.8827373  41.1402249  85.7441387  25.0807373  40.1892249
  86.1841387  25.0437373  39.1922249  86.4301387  25.5847373  40.8702249
  85.5621387  24.0657373  40.5432249  84.6751387  27.2787373  39.6892249
  84.7711387  27.5657373  38.4962249  84.7651387  28.1787373  40.6552249
  84.5791387  27.9247373  41.6152249  85.1301387  29.5467373  40.3672249
  85.2481387  29.6707373  39.2912249  84.3451387  30.2137373  40.7252249
  86.4281387  29.9057373  41.0482249  86.5221387  29.8527373  42.2762249
  87.4401387  30.2647373  40.2692249  87.3051387  30.3407373  39.2712249
  88.7641387  30.5207373  40.8052249  88.6981387  30.6737373  41.8822249
  89.7011387  29.3447373  40.5352249  89.7771387  29.1937373  39.4582249
  90.6861387  29.5787373  40.9392249  89.2111387  28.1677373  41.1422249
  89.8121387  27.4407373  40.9622249  89.3191387  31.7867373  40.1812249
  88.7691387  32.3237373  39.2212249  90.4191387  32.2697373  40.7412249
  90.7031387  31.9697373  41.6632249  91.2131387  33.2887373  40.0722249
  90.6101387  33.7667373  39.3002249  91.7211387  34.3517373  41.0552249
  92.3201387  33.8647373  41.8242249  92.5581387  35.3747373  40.3422249
  91.9591387  35.8627373  39.5732249  92.9091387  36.1197373  41.0562249
  93.4141387  34.8847373  39.8782249  90.5421387  35.0347373  41.7322249
  90.0171387  34.2787373  42.3162249  90.9451387  35.7947373  42.4012249
  89.5901387  35.6707373  40.7712249  89.1861387  34.9107373  40.1022249
  88.7741387  36.1387373  41.3232249  90.1141387  36.4277373  40.1872249
  92.3581387  32.5747373  39.3702249  92.4631387  32.6007373  38.1422249
  93.2001387  31.9047373  40.1412249  93.1231387  32.0027373  41.1432249
  94.2601387  31.0627373  39.6102249  94.2811387  31.1007373  38.5212249
  95.6221387  31.5007373  40.1392249  95.6201387  31.4587373  41.2282249
  96.3941387  30.8357373  39.7522249  95.8271387  32.5217373  39.8162249
  93.9611387  29.6257373  40.0022249  93.8461387  29.3167373  41.1882249
  93.8201387  28.7557373  39.0122249  93.8971387  29.0727373  38.0562249
  93.5111387  27.3537373  39.2522249  93.6201387  27.1227373  40.3122249
  92.0821387  27.0217373  38.8252249  91.9601387  27.2387373  37.7642249
  91.8851387  25.9647373  39.0042249  91.3811387  27.6237373  39.4022249
  94.5061387  26.4927373  38.4962249  94.4091387  26.3547373  37.2742249
  95.4531387  25.9097373  39.2202249  95.5101387  26.1167373  40.2072249
  96.4421387  25.0117373  38.6452249  96.3631387  25.0047373  37.5582249
  97.8591387  25.4327373  39.0282249  97.9571387  25.4357373  40.1142249
  98.5751387  24.7307373  38.6012249  98.0581387  26.4327373  38.6432249
  96.1561387  23.6027373  39.1292249  96.6001387  23.2147373  40.2102249
  95.4121387  22.8437373  38.3382249  94.9461387  23.2657373  37.5472249
  95.1611387  21.4347373  38.6172249  95.5151387  21.1447373  39.6072249
  93.6711387  21.1007373  38.5132249  93.1261387  21.8047373  39.1412249
  93.1601387  21.1837373  37.1152249  93.7051387  20.4797373  36.4862249
  92.0981387  20.9367373  37.1002249  93.3031387  22.1957373  36.7352249
  93.4301387  19.7967373  39.0552249  92.4951387  19.5907373  38.9882249
  96.0011387  20.5697373  37.6882249  96.1831387  20.8997373  36.5152249
  96.5511387  19.4837373  38.2272249  96.4071387  19.2877373  39.2072249
  97.3581387  18.5607373  37.4532249  97.2741387  18.8027373  36.3942249
  98.4001387  18.6407373  37.7622249  96.8871387  17.1377373  37.6722249
  96.4881387  16.7667373  38.7782249  96.9311387  16.3457373  36.6072249
  97.2331387  16.7067373  35.7132249  96.4981387  14.9547373  36.6812249
  95.9161387  14.7977373  37.5892249  95.6291387  14.5967373  35.4762249
  96.0991387  14.9367373  34.5532249  95.4881387  13.5167373  35.4352249
  94.2601387  15.2067373  35.5112249  94.0821387  16.5527373  35.2542249
  94.9531387  17.1687373  35.0292249  92.8241387  17.1187373  35.2792249
  92.6991387  18.1827373  35.0772249  91.7261387  16.3377373  35.5602249
  90.7301387  16.7807373  35.5812249  91.8871387  14.9937373  35.8152249
  91.0191387  14.3727373  36.0372249  93.1481387  14.4327373  35.7902249
  93.2751387  13.3687373  35.9912249  97.6961387  14.0157373  36.7582249
  97.6051387  12.8497373  36.3772249  98.7751387  14.4157373  37.1902249
  71.4641387  87.1847373  45.2842249  71.0161387  87.2267373  46.1882249
  71.0601387  87.8927373  44.6882249  72.4641387  87.1487373  45.4192249
  71.1131387  85.9137373  44.6642249  70.5921387  86.0957373  43.7242249
  72.3671387  85.0857373  44.3762249  73.1341387  85.4297373  45.0702249
  72.1141387  84.0487373  44.5992249  72.8901387  85.1837373  42.9562249
  72.3011387  84.5247373  42.3182249  72.7821387  86.2127373  42.6122249
  74.3551387  84.7777373  42.8892249  74.9651387  85.6557373  43.1032249
  74.5361387  84.0167373  43.6482249  74.7231387  84.2277373  41.5242249
  74.4611387  84.9567373  40.7572249  75.7951387  84.0327373  41.4882249
  73.9771387  82.9547373  41.2782249  72.9841387  83.1347373  41.3112249
  74.2231387  82.5907373  40.3692249  74.2201387  82.2797373  41.9892249
  70.1681387  85.0787373  45.5082249  69.6601387  85.5227373  46.5382249
  69.9601387  83.8497373  45.0472249  70.3951387  83.5997373  44.1712249
  69.1201387  82.8617373  45.7062249  69.3731387  82.7907373  46.7642249
  67.6411387  83.2297373  45.5812249  67.4101387  83.3977373  44.5292249
  66.7621387  82.1267373  46.1192249  66.9921387  81.9587373  47.1712249
  65.7151387  82.4137373  46.0182249  66.9431387  81.2107373  45.5572249
  67.3941387  84.4417373  46.3042249  66.4661387  84.6767373  46.2282249
  69.3891387  81.5047373  45.0772249  69.4781387  81.3937373  43.8532249
  69.5411387  80.4837373  45.9092249  69.5821387  80.6647373  46.9022249
  69.6891387  79.1107373  45.4522249  69.4821387  79.0607373  44.3832249
  71.1031387  78.5947373  45.6992249  71.3161387  78.7357373  46.7592249
  71.1011387  77.5297373  45.4682249  72.1631387  79.2837373  44.8782249
  71.7661387  79.4747373  43.8812249  72.4171387  80.2307373  45.3552249
  73.4031387  78.4247373  44.7712249  73.7691387  78.2127373  45.7762249
  73.1391387  77.4897373  44.2762249  74.4851387  79.1277373  43.9782249
  74.0681387  79.4117373  43.0122249  74.7781387  80.0237373  44.5242249
  75.6761387  78.2637373  43.7682249  75.4041387  77.4337373  43.2612249
  76.3701387  78.7697373  43.2372249  76.0631387  78.0007373  44.6632249
  68.6721387  78.2527373  46.1842249  68.5381387  78.3557373  47.4062249
  67.9581387  77.4147373  45.4462249  68.0951387  77.3837373  44.4462249
  66.9421387  76.5547373  46.0292249  67.1791387  76.3727373  47.0772249
  65.5571387  77.1977373  45.9462249  65.6881387  78.2657373  46.1192249
  65.1881387  77.0367373  44.9332249  64.5561387  76.6427373  46.9442249
  65.0631387  76.4557373  47.8912249  63.7721387  77.3857373  47.0932249
  63.9171387  75.3527373  46.4752249  63.3341387  75.2927373  45.3962249
  64.0321387  74.3087373  47.2822249  63.6241387  73.4227373  47.0182249
  64.5271387  74.4027373  48.1572249  66.9461387  75.2227373  45.3072249
  66.5941387  75.1557373  44.1282249  67.3261387  74.1697373  46.0132249
  67.6021387  74.2617373  46.9802249  67.3561387  72.8547373  45.4142249
  67.5321387  72.1207373  46.2002249  66.3891387  72.6637373  44.9492249
  68.4391387  72.7247373  44.3672249  68.1771387  72.3097373  43.2362249
  69.6661387  73.0717373  44.7362249  69.8191387  73.3787373  45.6862249
  70.7951387  73.0777373  43.8202249  70.4831387  72.8067373  42.8112249
  71.4731387  74.4547373  43.7712249  71.7231387  74.7617373  44.7862249
  72.7321387  74.3987373  42.9372249  72.4821387  74.0927373  41.9212249
  73.1981387  75.3837373  42.9152249  73.4251387  73.6797373  43.3732249
  70.5201387  75.4787373  43.2142249  69.6361387  75.5367373  43.8492249
  71.0091387  76.4517373  43.1832249  70.2231387  75.1897373  42.2062249
  71.7711387  72.0037373  44.2702249  72.0491387  71.8727373  45.4672249
  72.2751387  71.2297373  43.3182249  71.8741387  71.2767373  42.3922249
  73.3541387  70.2807373  43.5552249  73.6141387  70.2507373  44.6132249
  72.9611387  68.8737373  43.1092249  72.7071387  68.8857373  42.0492249
  73.7961387  68.1927373  43.2742249  72.0991387  68.5367373  43.6852249
  74.5861387  70.7647373  42.8032249  74.6101387  70.7447373  41.5702249
  75.5941387  71.2137373  43.5452249  75.5051387  71.1947373  44.5512249
  76.8121387  71.7687373  42.9702249  76.7411387  71.7597373  41.8822249
  77.0241387  73.2097373  43.4342249  76.1191387  73.7577373  43.1712249
  77.1251387  73.1757373  44.5192249  78.2361387  73.9127373  42.8332249
  79.1141387  73.3447373  43.1412249  78.1441387  73.8777373  41.7472249
  78.3851387  75.3607373  43.2832249  77.5601387  75.8247373  44.1032249
  79.3181387  76.0387373  42.8042249  77.9811387  70.8917373  43.3842249
  78.1741387  70.6367373  44.5742249  78.7491387  70.4227373  42.4072249
  78.4791387  70.6047373  41.4512249  79.9391387  69.6187373  42.6472249
  80.2341387  69.6897373  43.6942249  79.6951387  68.1487373  42.3072249
  79.4071387  68.0607373  41.2592249  80.6071387  67.5787373  42.4822249
  78.8961387  67.7577373  42.9372249  81.0821387  70.1777373  41.8162249
  80.9141387  70.4417373  40.6232249  82.2331387  70.3777373  42.4502249
  82.2951387  70.1587373  43.4342249  83.4041387  70.9437373  41.7932249
  83.2881387  70.8947373  40.7102249  83.6151387  72.4017373  42.1962249
  83.7411387  72.4657373  43.2772249  84.5061387  72.7907373  41.7032249
  82.7481387  72.9907373  41.8972249  84.6181387  70.1087373  42.1562249
  84.8631387  69.8447373  43.3362249  85.3681387  69.6967373  41.1532249
  85.1361387  69.9597373  40.2062249  86.5381387  68.8627373  41.3692249
  86.8371387  68.9287373  42.4152249  86.2911387  67.8287373  41.1272249
  87.6911387  69.3097373  40.4982249  87.5051387  69.6517373  39.3352249
  88.8841387  69.3047373  41.0812249  88.9661387  69.0087373  42.0432249
  90.0861387  69.7487373  40.3902249  89.9261387  69.6987373  39.3132249
  90.4351387  71.1877373  40.7662249  89.5851387  71.8097373  40.4882249
  90.5671387  71.2167373  41.8482249  91.6781387  71.7077373  40.0952249
  92.4491387  70.9387373  40.1442249  91.4471387  71.9237373  39.0522249
  92.1781387  72.9657373  40.7712249  91.3581387  73.6817373  40.8362249
  92.5211387  72.7147373  41.7752249  93.3221387  73.5777373  39.9852249
  92.9111387  74.1687373  39.1662249  93.8971387  74.2257373  40.6472249
  94.2091387  72.5197373  39.4352249  93.6771387  71.9197373  38.8222249
  94.9621387  72.9477373  38.9162249  94.5911387  71.9727373  40.1932249
  91.2231387  68.8127373  40.7532249  91.4201387  68.5027373  41.9292249
  91.9611387  68.3597373  39.7492249  91.6951387  68.5767373  38.7992249
  93.1241387  67.5157373  39.9632249  93.5291387  67.7147373  40.9552249
  92.7811387  66.0207373  39.8632249  92.0021387  65.7907373  40.5902249
  92.2971387  65.6697373  38.4812249  93.0761387  65.8987373  37.7542249
  92.0611387  64.6067373  38.4372249  91.4031387  66.2497373  38.2502249
  93.9451387  65.2397373  40.1522249  93.7281387  64.3067373  40.0892249
  94.1971387  67.8687373  38.9482249  94.0221387  68.7507373  38.1052249
  95.3201387  67.1627373  39.0442249  95.4381387  66.5227373  39.8162249
  96.4211387  67.3247373  38.1092249  96.1601387  68.0617373  37.3492249
  97.6721387  67.8067373  38.8502249  97.3391387  68.4927373  39.6282249
  98.1291387  66.9307373  39.3102249  98.6911387  68.5027373  37.9642249
  98.9311387  67.8427373  37.1312249  98.2461387  69.4217373  37.5822249
  99.9621387  68.8357373  38.7292249  99.6931387  69.4107373  39.6152249
 100.4391387  67.9037373  39.0332249 100.9261387  69.6427373  37.8742249
 101.9181387  69.5687373  38.3192249 100.9431387  69.2047373  36.8762249
 100.5301387  71.0737373  37.7812249 100.5151387  71.4797373  38.7062249
 101.1951387  71.5707373  37.2062249  99.6111387  71.1427373  37.3682249
  96.7211387  66.0397373  37.3512249  97.0461387  66.0827373  36.1652249
  96.6071387  64.8937373  38.0122249  96.2991387  64.9007373  38.9742249
  96.9221387  63.6127373  37.3982249  96.7621387  63.6767373  36.3222249
  98.3751387  63.2227373  37.6532249  98.5251387  63.2557373  38.7322249
  98.4921387  62.1977373  37.3012249  99.3881387  64.1007373  36.9812249
  99.2541387  64.0447373  35.9012249  99.2031387  65.1207373  37.3172249
 100.8031387  63.7027373  37.3342249 100.9811387  62.8667373  38.2472249
 101.7361387  64.2107373  36.6772249  96.0131387  62.5447373  37.9742249
  95.7001387  62.5737373  39.1652249  95.6111387  61.5967373  37.1432249
  95.8291387  61.6277373  36.1572249  94.8401387  60.4817373  37.6392249
  95.3301387  59.5617373  37.3182249  94.8361387  60.5307373  38.7282249
  93.4151387  60.4777373  37.1432249  93.1391387  60.8807373  36.0142249
  92.4971387  60.0367373  37.9912249  92.7841387  59.7687373  38.9222249
  91.1001387  59.8657373  37.6242249  90.9371387  60.1507373  36.5852249
  90.6481387  58.4117373  37.8112249  90.7711387  58.1357373  38.8582249
  89.2061387  58.2487373  37.4162249  89.0821387  58.5237373  36.3692249
  88.9051387  57.2107373  37.5562249  88.5841387  58.8937373  38.0372249
  91.5181387  57.5037373  36.9842249  92.5561387  57.6047373  37.3032249
  91.1961387  56.4707373  37.1172249  91.4331387  57.7777373  35.9322249
  90.2651387  60.8177373  38.4662249  90.4601387  60.9137373  39.6812249
  89.3511387  61.5297373  37.8182249  89.2641387  61.4137373  36.8182249
  88.4951387  62.5017373  38.4762249  88.5651387  62.3787373  39.5572249
  88.9141387  63.9227373  38.1192249  89.8691387  64.0457373  38.6312249
  89.0761387  63.9297373  37.0412249  87.9841387  65.0677373  38.4992249
  87.1011387  65.0217373  37.8622249  87.5681387  64.9837373  39.9342249
  88.4511387  65.0307373  40.5722249  86.9051387  65.8157373  40.1702249
  87.0451387  64.0427373  40.1072249  88.6761387  66.3777373  38.2442249
  88.9341387  66.4537373  37.1882249  88.0121387  67.1987373  38.5152249
  89.5841387  66.4317373  38.8442249  87.0541387  62.2517373  38.0672249
  86.7531387  62.1407373  36.8782249  86.1731387  62.1597373  39.0552249
  86.5101387  62.2117373  40.0062249  84.7491387  61.9487373  38.8382249
  84.5311387  61.9817373  37.7712249  84.3161387  60.5897373  39.3822249
  85.0221387  59.8537373  38.9962249  84.3941387  60.6327373  40.4682249
  82.9211387  60.1937373  38.9972249  81.8231387  60.7717373  39.6072249
  81.9881387  61.5227373  40.3792249  80.5501387  60.4177373  39.2592249
  79.6931387  60.8867373  39.7422249  80.3561387  59.4657373  38.2922249
  79.0781387  59.1037373  37.9422249  78.4051387  59.5787373  38.4362249
  81.4291387  58.8717373  37.6742249  81.2741387  58.1137373  36.9062249
  82.7011387  59.2377373  38.0292249  83.5581387  58.7707373  37.5442249
  83.9861387  63.0717373  39.5192249  84.1441387  63.2877373  40.7232249
  83.1601387  63.7807373  38.7572249  83.1081387  63.5697373  37.7712249
  82.3521387  64.8787373  39.2732249  82.3761387  64.8877373  40.3632249
  82.8371387  66.2437373  38.7602249  82.7541387  66.2657373  37.6732249
  82.0071387  67.3467373  39.3472249  82.0901387  67.3257373  40.4342249
  82.3621387  68.3077373  38.9742249  80.9641387  67.2097373  39.0602249
  84.2851387  66.4537373  39.1082249  84.8871387  65.6697373  38.6492249
  84.6111387  67.4257373  38.7372249  84.4081387  66.4187373  40.1902249
  80.9111387  64.6357373  38.8562249  80.6231387  64.5137373  37.6632249
  80.0071387  64.5737373  39.8292249  80.2711387  64.7067373  40.7952249
  78.6121387  64.3127373  39.5272249  78.4611387  64.5817373  38.4812249
  78.4591387  63.2407373  39.6522249  77.6031387  65.0577373  40.3782249
  77.7431387  65.1287373  41.6002249  76.5761387  65.6117373  39.7402249
  76.5661387  65.5757373  38.7312249  75.4821387  66.2907373  40.4172249
  75.6281387  66.2257373  41.4952249  75.4131387  67.7557373  40.0242249
  75.2301387  67.8227373  38.9522249  74.5891387  68.2247373  40.5632249
  76.6171387  68.4197373  40.3372249  76.5501387  69.3427373  40.0802249
  74.1651387  65.6117373  40.0752249  73.9531387  65.1907373  38.9382249
  73.2801387  65.5127373  41.0632249  73.5261387  65.8557373  41.9812249
  71.9721387  64.9007373  40.8832249  71.7021387  64.9297373  39.8272249
  71.9671387  63.4497373  41.3472249  72.5951387  63.4007373  42.2362249
  70.9391387  63.2077373  41.6162249  72.4611387  62.4677373  40.3332249
  71.7911387  62.4627373  39.4732249  73.4631387  62.7497373  40.0102249
  72.5001387  61.0927373  40.9472249  73.1611387  61.1237373  41.8132249
  71.4921387  60.8337373  41.2702249  72.9971387  60.0567373  39.9732249
  72.3831387  60.0907373  39.0732249  74.0321387  60.2787373  39.7152249
  72.9171387  58.7017373  40.5752249  71.9581387  58.4957373  40.8142249
  73.2531387  58.0187373  39.9122249  73.4861387  58.6697373  41.4092249
  70.9261387  65.6807373  41.6612249  71.1791387  66.1247373  42.7812249
  69.7491387  65.8327373  41.0662249  69.6281387  65.4807373  40.1272249
  68.6321387  66.5197373  41.6942249  68.7831387  66.5477373  42.7732249
  68.5031387  67.9547373  41.1812249  68.3521387  67.9307373  40.1022249
  67.3371387  68.6537373  41.8362249  67.4871387  68.6787373  42.9152249
  67.2641387  69.6727373  41.4562249  66.4161387  68.1157373  41.6102249
  69.7001387  68.6767373  41.4762249  69.6181387  69.5777373  41.1542249
  67.3521387  65.7487373  41.4182249  67.1231387  65.3027373  40.2942249
  66.5321387  65.5777373  42.4502249  66.8411387  65.8607373  43.3692249
  65.2141387  64.9667373  42.3212249  64.9631387  64.8687373  41.2652249
  65.1781387  63.5837373  42.9612249  65.5421387  63.6917373  43.9832249
  64.1361387  63.2637373  42.9792249  66.0011387  62.5617373  42.2452249
  65.8421387  62.6647373  41.1722249  67.0541387  62.7287373  42.4732249
  65.6091387  61.1797373  42.6782249  65.5871387  61.1477373  43.7672249
  64.6151387  60.9597373  42.2882249  66.5861387  60.1567373  42.1662249
  66.9331387  60.4637373  41.1792249  67.4341387  60.1067373  42.8492249
  65.9501387  58.8267373  42.0722249  65.1651387  58.8727373  41.4392249
  66.6221387  58.1557373  41.7272249  65.6291387  58.5417373  42.9862249
  64.1971387  65.8807373  42.9802249  64.3041387  66.1687373  44.1732249
  63.2161387  66.3367373  42.2062249  63.1791387  66.0517373  41.2382249
  62.2021387  67.2627373  42.6932249  62.2291387  67.2907373  43.7822249
  62.4421387  68.6707373  42.1642249  62.8721387  68.5747373  41.1672249
  61.4721387  69.1627373  42.0952249  63.3531387  69.4857373  43.0232249
  62.8081387  69.7837373  43.9192249  64.1991387  68.8587373  43.3052249
  63.8541387  70.7117373  42.3112249  64.3971387  70.5617373  41.1992249
  63.7011387  71.8227373  42.8562249  60.8361387  66.7717373  42.2592249
  60.5211387  66.7917373  41.0692249  60.0221387  66.3557373  43.2202249
  60.3091387  66.3887373  44.1882249  58.7041387  65.8437373  42.9132249
  58.1721387  65.6647373  43.8482249  58.1671387  66.5897373  42.3272249
  58.7661387  64.5567373  42.1302249  58.2481387  64.4807373  41.0192249
  59.3941387  63.5377373  42.6992249  59.7381387  63.6447373  43.6422249
  59.6521387  62.2847373  42.0102249  59.1731387  62.2617373  41.0312249
  61.1601387  62.0507373  41.8252249  61.6661387  62.2477373  42.7702249
  61.4291387  60.6337373  41.3992249  60.9231387  60.4357373  40.4542249
  62.5021387  60.4887373  41.2742249  61.0571387  59.9477373  42.1602249
  61.7161387  63.0157373  40.8202249  61.5541387  64.0357373  41.1672249
  62.7851387  62.8387373  40.6992249  61.2141387  62.8737373  39.8632249
  59.0261387  61.1547373  42.8062249  59.2101387  61.0737373  44.0222249
  58.2811387  60.2927373  42.1272249  57.9841387  60.5327373  41.1922249
  57.8331387  59.0277373  42.6892249  58.0151387  59.0247373  43.7642249
  56.3401387  58.7797373  42.4442249  56.1261387  58.8877373  41.3812249
  55.9751387  57.3917373  42.8902249  56.1881387  57.2837373  43.9532249
  54.9131387  57.2207373  42.7142249  56.5581387  56.6637373  42.3272249
  55.5281387  59.7757373  43.2002249  55.7841387  60.7817373  42.8672249
  54.4691387  59.5927373  43.0212249  55.7371387  59.6817373  44.2662249
  58.6761387  57.9387373  42.0582249  58.7071387  57.8007373  40.8332249
  59.3681387  57.1727373  42.8872249  59.2431387  57.2767373  43.8842249
  60.3401387  56.2047373  42.4132249  60.2061387  56.0397373  41.3442249
  61.7611387  56.7127373  42.6552249  61.9501387  57.5937373  42.0422249
  61.8951387  56.9667373  43.7072249  62.8241387  55.7207373  42.3162249
  63.5081387  55.7417373  41.1222249  64.3811387  54.7517373  41.0992249
  65.0241387  54.5977373  40.2322249  64.2881387  54.0897373  42.2362249
  64.8331387  53.2807373  42.4992249  63.3241387  54.6777373  43.0162249
  63.1011387  54.2737373  44.0042249  60.1171387  54.8837373  43.1242249
  60.0841387  54.8387373  44.3532249  59.9611387  53.8177373  42.3592249
  59.8651387  53.9037373  41.3572249  59.9231387  52.4957373  42.9402249
  60.0161387  51.7887373  42.1162249  60.7951387  52.4137373  43.5892249
  58.6831387  52.1617373  43.7372249  58.7451387  52.0177373  44.9572249
  57.5501387  52.0297373  43.0662249  57.5301387  52.2647373  42.0842249
  56.3111387  51.6057373  43.6992249  56.4231387  51.5867373  44.7832249
  55.1411387  52.5287373  43.3442249  55.0611387  52.6047373  42.2602249
  53.8551387  51.9747373  43.9052249  53.9341387  51.8987373  44.9892249
  53.0301387  52.6387373  43.6472249  53.6711387  50.9857373  43.4852249
  55.3951387  53.9097373  43.8832249  56.3111387  54.3077373  43.4472249
  54.5591387  54.5597373  43.6262249  55.5001387  53.8637373  44.9672249
  56.0471387  50.1797373  43.2522249  55.7661387  49.9337373  42.0762249
  56.1431387  49.2387373  44.1782249  56.3621387  49.5047373  45.1272249
  55.9871387  47.8257373  43.8772249  55.8051387  47.6907373  42.8112249
  57.2391387  47.0427373  44.2612249  57.4291387  47.1607373  45.3282249
  57.0921387  45.9867373  44.0332249  58.0921387  47.4197373  43.6972249
  54.7781387  47.2827373  44.6182249  54.6211387  47.5237373  45.8162249
  53.9321387  46.5467373  43.9092249  54.1431387  46.3187373  42.9482249
  52.6781387  46.0717373  44.4702249  52.7631387  46.0217373  45.5552249
  51.5231387  47.0117373  44.1132249  51.2921387  46.9057373  43.0532249
  50.2981387  46.6727373  44.9312249  50.5281387  46.7787373  45.9912249
  49.4851387  47.3487373  44.6662249  49.9961387  45.6457373  44.7262249
  51.9031387  48.3647373  44.3872249  51.1781387  48.9527373  44.1632249
  52.3871387  44.6827373  43.9432249  52.4971387  44.4397373  42.7412249
  52.0051387  43.7797373  44.8332249  52.0031387  44.0177373  45.8152249
  51.6301387  42.4277373  44.4512249  51.4781387  42.3697373  43.3732249
  52.7001387  41.3977373  44.8532249  52.9821387  41.5657373  45.8922249
  52.1651387  39.9927373  44.6972249  51.8831387  39.8237373  43.6582249
  52.9341387  39.2767373  44.9852249  51.2911387  39.8637373  45.3352249
  53.9191387  41.5767373  44.0072249  54.3161387  42.5817373  44.1492249
  54.6731387  40.8447373  44.2962249  53.6581387  41.4337373  42.9582249
  50.3011387  42.0927373  45.1002249  50.1251387  42.2897373  46.3042249
  49.3661387  41.6037373  44.2982249  49.5051387  41.6697373  43.3002249
  48.1351387  41.0037373  44.7842249  48.1071387  40.9757373  45.8732249
  46.9131387  41.7697373  44.2852249  46.9221387  41.7987373  43.1952249
  46.0061387  41.2707373  44.6272249  46.9371387  42.7867373  44.6752249
  48.1081387  39.5677373  44.2972249  48.0861387  39.3237373  43.0902249
  48.1271387  38.6217373  45.2232249  48.1621387  38.8747373  46.2002249
  48.1361387  37.2097373  44.8752249  48.0731387  37.1037373  43.7922249
  49.4111387  36.5287373  45.3582249  50.2621387  37.0447373  44.9152249
  49.4561387  36.6197373  46.4432249  49.4521387  35.0777373  44.9762249
  48.4781387  34.6417373  45.2002249  49.6341387  35.0267373  43.9022249
  50.5211387  34.3127373  45.7012249  51.1951387  34.9007373  46.5692249
  50.6821387  33.1147373  45.4042249  46.9241387  36.5247373  45.4842249
  46.7151387  36.5967373  46.6972249  46.1451387  35.8457373  44.6432249
  46.3331387  35.9147373  43.6532249  44.9811387  35.0747373  45.0752249
  44.4181387  34.7477373  44.2012249  45.3981387  33.8447373  45.8752249
  46.0001387  34.1897373  46.7152249  44.4891387  33.3747373  46.2492249
  46.1831387  32.8477373  45.0732249  45.5181387  32.3807373  44.3472249
  46.9821387  33.3717373  44.5492249  46.7771387  31.7887373  45.9622249
  47.4911387  32.2587373  46.6382249  45.9771387  31.3297373  46.5422249
  47.4781387  30.7297373  45.1472249  46.7241387  30.1447373  44.6202249
  48.1251387  31.2247373  44.4232249  48.2891387  29.8327373  46.0022249
  47.6891387  29.3737373  46.6732249  48.7431387  29.1387373  45.4262249
  48.9881387  30.3737373  46.4902249  44.0051387  35.9227373  45.8762249
  43.3401387  35.4347373  46.7842249  43.9221387  37.1987373  45.5422249
  44.5261387  37.5677373  44.8222249  43.0111387  38.1107373  46.2092249
  42.9321387  37.8767373  47.2712249  43.5221387  39.5417373  46.0612249
  43.8091387  39.7037373  45.0222249  42.4661387  40.5387373  46.4502249
  42.1791387  40.3777373  47.4892249  42.8591387  41.5487373  46.3342249
  41.5931387  40.4137373  45.8092249  44.6731387  39.7237373  46.8892249
  44.9951387  40.6237373  46.7962249  41.6111387  37.9797373  45.6252249
  41.4291387  38.0487373  44.4082249  40.6271387  37.7797373  46.4902249
  40.8521387  37.5467373  47.4472249  39.2271387  37.8477373  46.1082249
  39.1451387  37.7117373  45.0302249  38.3921387  36.7717373  46.8012249
  38.5621387  36.8797373  47.8722249  37.3481387  36.9877373  46.5762249
  38.7151387  35.3597373  46.3812249  37.8041387  34.7647373  46.4482249
  39.0601387  35.3797373  45.3472249  39.7791387  34.7477373  47.2542249
  40.5961387  35.4607373  47.3652249  39.3501387  34.5317373  48.2322249
  40.3061387  33.4707373  46.6432249  39.4671387  32.7887373  46.5022249
  40.7441387  33.7117373  45.6742249  41.3301387  32.8237373  47.5012249
  40.9241387  32.5997373  48.3982249  41.6551387  31.9767373  47.0572249
  42.1081387  33.4547373  47.6312249  38.7081387  39.2267373  46.4652249
  38.9781387  39.7317373  47.5552249  37.9741387  39.8367373  45.5482249
  37.7041387  39.3677373  44.6952249  37.5721387  41.2217373  45.7292249
  37.5091387  41.4567373  46.7922249  38.5931387  42.1487373  45.0862249
  39.5461387  41.6197373  45.0782249  38.2661387  42.3237373  44.0612249
  38.7571387  43.4547373  45.7842249  38.6831387  43.2797373  46.8572249
  39.7451387  43.8487373  45.5472249  37.7131387  44.4427373  45.3672249
  37.1581387  44.2797373  44.2632249  37.4471387  45.3827373  46.1402249
  36.1961387  41.4147373  45.1182249  35.9921387  41.0987373  43.9452249
  35.2581387  41.9207373  45.9102249  35.5041387  42.1847373  46.8532249
  33.8771387  42.0847373  45.4862249  33.8111387  41.9647373  44.4052249
  32.9771387  41.0497373  46.1462249  33.1131387  41.1327373  47.2242249
  31.9471387  41.2967373  45.8902249  33.2761387  39.6527373  45.7132249
  32.9901387  39.5377373  44.6682249  34.3481387  39.4817373  45.8172249
  32.5481387  38.6277373  46.5232249  32.1881387  37.5717373  46.0232249
  32.3281387  38.9247373  47.7872249  31.8401387  38.2677373  48.3792249
  32.6481387  39.8077373  48.1582249  33.4161387  43.4797373  45.8462249
  33.5591387  43.9017373  46.9922249  32.8601387  44.1917373  44.8772249
  32.7411387  43.7807373  43.9622249  32.4551387  45.5747373  45.0702249
  32.3971387  45.8217373  46.1302249  33.4301387  46.5547373  44.3892249
  33.6551387  46.1857373  43.3882249  32.8271387  47.9387373  44.2922249
  32.6021387  48.3087373  45.2922249  33.5351387  48.6107373  43.8082249
  31.9091387  47.8957373  43.7062249  34.7261387  46.6067373  45.1442249
  35.1751387  45.6137373  45.1642249  35.4061387  47.3027373  44.6522249
  34.5391387  46.9417373  46.1642249  31.0501387  45.7557373  44.5232249
  30.7391387  45.2797373  43.4282249  30.2031387  46.4247373  45.2942249
  30.4411387  46.5517373  46.2672249  28.9391387  46.9647373  44.8172249
  28.8571387  46.7847373  43.7452249  27.7441387  46.3187373  45.5132249
  27.8241387  46.4837373  46.5872249  26.4561387  46.9237373  45.0062249
  26.3751387  46.7587373  43.9322249  25.6111387  46.4547373  45.5102249
  26.4521387  47.9947373  45.2102249  27.7341387  44.9157373  45.2482249
  26.9811387  44.5127373  45.6872249  28.9591387  48.4567373  45.0832249
  29.1841387  48.8817373  46.2172249  28.7401387  49.2457373  44.0462249
  28.5481387  48.8447373  43.1392249  28.8071387  50.6897373  44.1592249
  28.8761387  50.9717373  45.2102249  30.0291387  51.2357373  43.4262249
  30.8921387  50.6207373  43.6812249  29.8481387  51.1797373  42.3532249
  30.3321387  52.6597373  43.7872249  30.3341387  53.0247373  44.9532249
  30.5891387  53.4767373  42.7862249  30.8001387  54.4467373  42.9712249
  30.5741387  53.1287373  41.8382249  27.5351387  51.2907373  43.5932249
  27.0721387  50.8757373  42.5292249  26.9661387  52.2547373  44.3092249
  27.3451387  52.4657373  45.2212249  25.7941387  52.9937373  43.8612249
  25.6381387  52.8447373  42.7932249  24.5201387  52.5847373  44.6032249
  24.6321387  52.8137373  45.6632249  23.3391387  53.3367373  44.0492249
  23.2261387  53.1077373  42.9892249  22.4361387  53.0397373  44.5822249
  23.4991387  54.4077373  44.1742249  24.2931387  51.0977373  44.4892249
  25.1401387  50.5657373  44.9232249  23.3821387  50.8267373  45.0232249
  24.1931387  50.8247373  43.4392249  26.0981387  54.4687373  44.0742249
  25.9281387  54.9887373  45.1792249  26.5541387  55.1457373  43.0262249
  26.7661387  54.6747373  42.1582249  26.7591387  56.5757373  43.0982249
  26.8761387  56.9267373  42.0732249  25.8511387  57.0007373  43.5252249
  27.9431387  57.0317373  43.9112249  28.1061387  58.2357373  44.1132249
  28.7791387  56.1147373  44.3902249  28.5741387  55.1377373  44.2402249
  29.9731387  56.4577373  45.1192249  29.9541387  57.5267373  45.3292249
  29.9751387  55.9037373  46.0582249  31.2371387  56.1287373  44.3502249
  31.2151387  55.7387373  43.1832249  32.3601387  56.2787373  45.0392249
  32.3121387  56.5637373  46.0072249  33.6711387  56.0887373  44.4402249
  33.5721387  55.7677373  43.4032249  34.4781387  57.3857373  44.4752249
  34.5931387  57.7147373  45.5082249  35.4611387  57.2147373  44.0372249
  33.9561387  58.1547373  43.9052249  34.3981387  54.9867373  45.1862249
  34.5391387  55.0547373  46.4072249  34.8541387  53.9767373  44.4602249
  34.6391387  53.9487373  43.4742249  35.6171387  52.8787373  45.0302249
  35.8571387  53.0737373  46.0752249  34.8581387  51.5477373  44.9412249
  34.6001387  51.3547373  43.9002249  35.7141387  50.4187373  45.4652249
  35.9731387  50.6107373  46.5062249  35.1621387  49.4817373  45.3952249
  36.6261387  50.3477373  44.8722249  33.5691387  51.6317373  45.7122249
  32.9471387  52.4247373  45.2962249  33.0401387  50.6817373  45.6412249
  33.7841387  51.8497373  46.7582249  36.9371387  52.8007373  44.2842249
  36.9521387  52.6247373  43.0622249  38.0401387  52.9347373  45.0112249
  37.9561387  53.1047373  46.0032249  39.3741387  52.8967373  44.4272249
  39.3161387  52.6357373  43.3702249  40.0921387  54.2457373  44.5602249
  40.0081387  54.5977373  45.5882249  41.5441387  54.0927373  44.2002249
  41.6291387  53.7417373  43.1722249  42.0461387  55.0547373  44.2972249
  42.0111387  53.3707373  44.8702249  39.4481387  55.2597373  43.6692249
  38.4031387  55.3817373  43.9522249  39.9651387  56.2137373  43.7712249
  39.5071387  54.9237373  42.6342249  40.1641387  51.7957373  45.1112249
  40.3761387  51.8437373  46.3262249  40.5951387  50.8027373  44.3382249
  40.3461387  50.7737373  43.3592249  41.3821387  49.7067373  44.8832249
  41.6971387  49.9447373  45.8992249  40.5751387  48.4027373  44.9132249
  41.0961387  47.6867373  45.5492249  39.1761387  48.6317373  45.4512249
  38.6541387  49.3467373  44.8152249  38.6301387  47.6877373  45.4592249
  39.2361387  49.0247373  46.4662249  40.4831387  47.8657373  43.5912249
  39.9781387  47.0497373  43.6122249  42.6731387  49.4677373  44.1122249
  43.3391387  48.4567373  44.3512249  43.0461387  50.3597373  43.1952249
  42.5081387  51.2067373  43.0802249  44.2001387  50.1617373  42.3502249
  44.4011387  49.0917373  42.2962249  43.9601387  50.5367373  41.3552249
  45.4411387  50.8727373  42.8602249  45.5091387  51.3477373  43.9952249
  46.4411387  50.9407373  41.9882249  46.3161387  50.5107373  41.0832249
  47.7221387  51.5687373  42.2842249  47.8141387  51.7827373  43.3492249
  48.9041387  50.6867373  41.8572249  48.7961387  50.4257373  40.8042249
  50.1981387  51.4287373  42.0602249  50.3071387  51.6897373  43.1132249
  51.0321387  50.7967373  41.7552249  50.1941387  52.3387373  41.4602249
  48.9111387  49.3957373  42.6312249  47.9831387  48.8547373  42.4452249
  49.7561387  48.7857373  42.3132249  48.9991387  49.6107373  43.6962249
  47.7661387  52.9017373  41.5652249  47.5781387  52.9607373  40.3462249
  48.0121387  53.9697373  42.3102249  48.1071387  53.8707373  43.3112249
  48.1031387  55.3037373  41.7382249  48.1471387  55.2307373  40.6512249
  46.8861387  56.1517373  42.1232249  46.6421387  55.9597373  43.1682249
  47.1691387  57.6157373  41.9362249  47.4131387  57.8087373  40.8912249
  46.2891387  58.1947373  42.2162249  48.0111387  57.9067373  42.5652249
  45.7731387  55.7907373  41.2972249  45.0101387  56.3217373  41.5382249
  49.3921387  55.9427373  42.2242249  49.6071387  56.0637373  43.4312249
  50.2451387  56.3467373  41.2922249  49.9971387  56.2177373  40.3212249
  51.5441387  56.9317373  41.6022249  51.6331387  57.1497373  42.6662249
  52.6781387  55.9967373  41.1992249  52.6071387  55.7767373  40.1342249
  53.6351387  56.4747373  41.4082249  52.6041387  55.0687373  41.7672249
  51.6381387  58.2547373  40.8692249  51.7241387  58.2817373  39.6412249
  51.6071387  59.3497373  41.6112249  51.6201387  59.2647373  42.6172249
  51.5051387  60.6797373  41.0332249  51.5911387  60.6367373  39.9472249
  50.1701387  61.3487373  41.3932249  50.1171387  61.4767373  42.4742249
  50.0571387  62.6907373  40.7232249  50.1091387  62.5627373  39.6422249
  49.1051387  63.1507373  40.9892249  50.8751387  63.3317373  41.0522249
  49.0381387  60.4667373  40.9812249  49.1141387  59.5107373  41.4992249
  48.0921387  60.9447373  41.2382249  49.0801387  60.2997373  39.9052249
  52.6691387  61.5177373  41.5212249  52.9471387  61.5637373  42.7212249
  53.3361387  62.1887373  40.5942249  53.0951387  62.0507373  39.6232249
  54.4221387  63.0987373  40.9112249  54.4851387  63.2707373  41.9852249
  55.7601387  62.5577373  40.4252249  55.7151387  62.3887373  39.3492249
  56.5461387  63.2787373  40.6472249  55.9781387  61.6167373  40.9312249
  54.1261387  64.4277373  40.2552249  53.7471387  64.4697373  39.0862249
  54.2881387  65.5047373  40.9982249  54.5991387  65.4247373  41.9562249
  53.9871387  66.8237373  40.4822249  54.0221387  66.8047373  39.3932249
  52.6021387  67.2807373  40.9162249  51.9121387  66.4617373  40.7122249
  52.6431387  67.4617373  41.9902249  52.1251387  68.5227373  40.2162249
  52.9311387  69.2567373  40.2052249  51.8601387  68.2597373  39.1922249
  50.9231387  69.1377373  40.8812249  50.8981387  69.3167373  42.0922249
  49.9201387  69.4737373  40.0902249  49.0881387  69.8907373  40.4832249
  49.9891387  69.3127373  39.0952249  55.0321387  67.8127373  40.9592249
  55.3151387  67.9027373  42.1522249  55.6051387  68.5517373  40.0202249
  55.4391387  68.3287373  39.0492249  56.5021387  69.6527373  40.3312249
  56.5541387  69.7827373  41.4122249  57.9111387  69.3887373  39.8032249
  58.3821387  68.6917373  40.4962249  57.7991387  68.9117373  38.8292249
  58.7741387  70.6207373  39.6632249  59.6891387  70.3417373  39.1412249
  58.2291387  71.3557373  39.0712249  59.1191387  71.2097373  40.9952249
  58.3521387  71.9367373  41.2612249  59.1331387  70.4087373  41.7342249
  60.4651387  71.8887373  40.9652249  60.6401387  72.3607373  41.9322249
  61.2321387  71.1357373  40.7852249  60.5201387  72.9047373  39.9082249
  59.8091387  73.6027373  40.0752249  61.4301387  73.3437373  39.9102249
  60.3591387  72.4677373  39.0122249  55.9121387  70.9047373  39.7142249
  55.7231387  70.9667373  38.4992249  55.6041387  71.8867373  40.5452249
  55.7881387  71.7847373  41.5332249  54.9701387  73.1097373  40.0852249
  54.9501387  73.1127373  38.9952249  53.5361387  73.2197373  40.6002249
  53.5541387  73.3367373  41.6842249  52.8511387  74.4047373  39.9802249
  52.8331387  74.2887373  38.8962249  51.8301387  74.4717373  40.3552249
  53.3931387  75.3147373  40.2382249  52.8111387  72.0367373  40.2542249
  51.9101387  72.1067373  40.5782249  55.7811387  74.3017373  40.5562249
  56.1601387  74.3747373  41.7252249  56.0511387  75.2237373  39.6482249
  55.8461387  75.0307373  38.6782249  56.6641387  76.4997373  39.9822249
  56.9671387  76.5427373  41.0282249  57.8941387  76.7727373  39.1032249
  57.5701387  76.9227373  38.0732249  58.6161387  78.0017373  39.5852249
  58.9401387  77.8527373  40.6152249  59.4861387  78.1837373  38.9542249
  57.9461387  78.8597373  39.5362249  58.8051387  75.5797373  39.0972249
  58.2701387  74.7157373  38.7022249  59.6721387  75.7877373  38.4702249
  59.1351387  75.3687373  40.1142249  55.6151387  77.5797373  39.7902249
  54.9151387  77.5967373  38.7702249  55.4971387  78.4757373  40.7672249
  56.0061387  78.3427373  41.6292249  54.5861387  79.6157373  40.6682249
  54.6231387  80.1897373  41.5942249  54.9691387  80.5347373  39.5072249
  54.9381387  79.9307373  38.6002249  54.2071387  81.3117373  39.4522249
  56.3341387  81.1757373  39.6402249  57.0321387  80.4067373  39.9722249
  56.6321387  81.5347373  38.6552249  56.3481387  82.3267373  40.6212249
  55.2601387  82.7317373  41.0822249  57.4481387  82.8277373  40.9312249
  53.1391387  79.1607373  40.5312249  52.3511387  79.7537373  39.7952249
  52.7841387  78.0947373  41.2382249  53.4521387  77.5957373  41.8082249
  51.4171387  77.6187373  41.2082249  50.8401387  78.3217373  40.6072249
  51.4221387  76.6437373  40.7202249  50.7671387  77.4847373  42.5692249
  51.1611387  76.6347373  43.3722249  49.7501387  78.3037373  42.8262249
  49.4951387  78.9937373  42.1342249  49.0091387  78.2747373  44.0782249
  49.6181387  77.8097373  44.8532249  48.6431387  79.6877373  44.5272249
  48.0251387  80.1627373  43.7652249  48.0901387  79.6397373  45.4652249
  49.5531387  80.2707373  44.6722249  47.7471387  77.4417373  43.9202249
  47.1381387  77.4157373  42.8492249  47.3581387  76.7617373  44.9932249
  47.8851387  76.8067373  45.8532249  46.1691387  75.9387373  44.9592249
  45.9251387  75.6817373  45.9902249  45.3681387  76.5457373  44.5372249
  46.2991387  74.6707373  44.1552249  45.2881387  74.1407373  43.6902249
  47.5111387  74.1607373  43.9792249  48.3181387  74.6217373  44.3742249
  47.7211387  72.9607373  43.1882249  47.0751387  72.9777373  42.3102249
  49.1711387  72.8797373  42.7252249  49.7671387  72.4227373  43.5152249
  49.2191387  72.2597373  41.8302249  49.6801387  74.1647373  42.4352249
  50.5921387  74.0897373  42.1462249  47.3601387  71.7297373  44.0002249
  47.7211387  71.6237373  45.1732249  46.6351387  70.8077373  43.3792249
  46.2611387  71.0227373  42.4662249  46.3231387  69.5127373  43.9652249
  46.6911387  69.4687373  44.9902249  44.8151387  69.2187373  43.9492249
  44.4381387  69.3407373  42.9332249  44.5531387  67.8097373  44.4152249
  44.9291387  67.6867373  45.4312249  43.4811387  67.6147373  44.3992249
  45.0601387  67.1077373  43.7532249  44.0611387  70.2117373  44.8222249
  43.2971387  69.6557373  45.3652249  44.7751387  70.6337373  45.5302249
  43.4151387  71.3187373  44.0442249  42.7011387  70.8977373  43.3372249
  42.8951387  71.9897373  44.7282249  44.1791387  71.8757373  43.5012249
  47.0771387  68.4617373  43.1762249  46.8871387  68.3407373  41.9652249
  47.9301387  67.7007373  43.8512249  48.1281387  67.8397373  44.8322249
  48.6761387  66.6777373  43.1362249  49.0161387  67.0957373  42.1892249
  49.8961387  66.2467373  43.9452249  49.5711387  65.8177373  44.8932249
  50.4601387  65.5017373  43.3842249  50.5301387  67.1127373  44.1372249
  47.7851387  65.4897373  42.8032249  47.6031387  65.1467373  41.6352249
  47.2031387  64.8547373  43.8102249  47.3821387  65.1317373  44.7652249
  46.3321387  63.7157373  43.5752249  46.0621387  63.6837373  42.5192249
  47.0171387  62.4027373  43.9432249  47.2851387  62.4157373  44.9992249
  46.3381387  61.5717373  43.7512249  47.9181387  62.2817373  43.3422249
  45.0511387  63.8717373  44.3722249  45.0911387  64.0837373  45.5852249
  43.9241387  63.7737373  43.6862249  43.9701387  63.8077373  42.6782249
  42.6151387  63.6687373  44.3142249  42.6871387  63.6197373  45.4012249
  41.7221387  64.8397373  43.9382249  41.6331387  64.8957373  42.8532249
  40.7341387  64.6987373  44.3762249  42.1581387  65.7647373  44.3152249
  42.0401387  62.3357373  43.8582249  41.5811387  62.2057373  42.7222249
  42.0741387  61.3447373  44.7352249  42.3641387  61.5417373  45.6822249
  41.7441387  59.9727373  44.3862249  41.5101387  59.9017373  43.3242249
  42.9221387  59.0417373  44.6922249  43.1291387  59.0807373  45.7612249
  42.6101387  57.6207373  44.2922249  42.4031387  57.5807373  43.2232249
  43.4641387  56.9827373  44.5212249  41.7371387  57.2707373  44.8432249
  44.0791387  59.4847373  43.9752249  44.8171387  58.9017373  44.1672249
  40.5141387  59.5287373  45.1582249  40.4461387  59.7097373  46.3752249
  39.5481387  58.9567373  44.4502249  39.5801387  58.9897373  43.4412249
  38.4341387  58.2767373  45.0802249  37.8261387  57.8647373  44.2752249
  38.8591387  57.4617373  45.6672249  37.5591387  59.1217373  45.9742249
  37.5361387  58.9107373  47.1832249  36.8171387  60.0657373  45.4152249
  36.8101387  60.2107373  44.4152249  36.0371387  60.9627373  46.2452249
  35.8581387  60.4957373  47.2132249  36.7641387  62.2867373  46.4692249
  36.1531387  62.9267373  47.1062249  37.7311387  62.1197373  46.9442249
  37.0301387  63.0577373  45.2172249  38.1581387  62.8077373  44.4652249
  38.8541387  62.0337373  44.7872249  38.4081387  63.5207373  43.3242249
  39.3021387  63.3137373  42.7352249  37.5311387  64.4977373  42.9212249
  37.7271387  65.0667373  42.0122249  36.4081387  64.7567373  43.6632249
  35.7101387  65.5307373  43.3442249  36.1641387  64.0447373  44.8032249
  35.2751387  64.2547373  45.3972249  34.6741387  61.2137373  45.6272249
  34.4151387  60.8937373  44.4682249  33.7991387  61.7947373  46.4402249
  34.0501387  61.8877373  47.4142249  32.4941387  62.2727373  46.0162249
  32.3791387  62.1857373  44.9362249  31.3551387  61.5027373  46.6932249
  31.5211387  61.4877373  47.7702249  30.0371387  62.1707373  46.3982249
  29.8701387  62.1857373  45.3212249  29.2321387  61.6177373  46.8832249
  30.0541387  63.1927373  46.7772249  31.3411387  60.0677373  46.2272249
  32.2891387  59.5937373  46.4802249  30.5261387  59.5337373  46.7172249
  31.1971387  60.0377373  45.1472249  32.4261387  63.7467373  46.3622249
  32.5061387  64.1147373  47.5372249  32.2951387  64.5867373  45.3492249
  32.3021387  64.2227373  44.4072249  32.1871387  66.0277373  45.5312249
  32.2591387  66.2657373  46.5922249  33.2981387  66.7617373  44.7912249
  34.2481387  66.3277373  45.1042249  33.1551387  66.5907373  43.7242249
  33.3091387  68.2417373  45.0642249  32.3771387  68.6647373  44.6902249
  33.3681387  68.3897373  46.1422249  34.4731387  68.9267373  44.4002249
  35.4011387  68.5087373  44.7892249  34.4211387  68.7557373  43.3252249
  34.4361387  70.4107373  44.6752249  33.4631387  70.7927373  44.3662249
  34.5621387  70.5647373  45.7472249  35.5041387  71.1307373  43.9442249
  35.3871387  70.9887373  42.9512249  35.4481387  72.1177373  44.1522249
  36.4061387  70.7767373  44.2312249  30.8181387  66.4677373  45.0362249
  30.5151387  66.3527373  43.8462249  29.9931387  66.9687373  45.9492249
  30.3081387  67.0247373  46.9072249  28.6241387  67.3707373  45.6472249
  28.5071387  67.4827373  44.5692249  27.6281387  66.3327373  46.1392249
  28.0271387  65.8927373  47.0532249  26.6921387  66.8457373  46.3612249
  27.3761387  65.2437373  45.1252249  26.7641387  65.6607373  44.3252249
  28.3381387  64.9287373  44.7202249  26.6721387  64.0557373  45.7292249
  27.3101387  63.6187373  46.4982249  25.7371387  64.3887373  46.1792249
  26.3781387  63.0167373  44.6672249  25.5551387  63.3827373  44.0532249
  27.2681387  62.9017373  44.0492249  26.0111387  61.7037373  45.2552249
  25.1861387  61.8097373  45.8272249  25.8241387  61.0437373  44.5142249
  26.7741387  61.3647373  45.8242249  28.3721387  68.7437373  46.2652249
  27.3941387  68.9507373  46.9802249  29.2731387  69.6777373  45.9902249
  30.0731387  69.4477373  45.4182249  29.1701387  71.0267373  46.5192249
  29.0201387  70.9897373  47.5982249  30.4471387  71.8127373  46.2312249
  30.7011387  71.6707373  45.1812249  30.2371387  72.8667373  46.4142249
  31.6071387  71.3737373  47.0942249  32.6501387  72.0577373  47.0802249
  31.4781387  70.3487373  47.7892249  27.9731387  71.7607373  45.9212249
  27.3801387  71.3367373  44.9282249  27.6241387  72.8787373  46.5492249
  28.1111387  73.1487373  47.3912249  26.5221387  73.7127373  46.0912249
  26.2151387  73.4007373  45.0932249  25.3261387  73.5877373  47.0302249
  25.6871387  73.7777373  48.0412249  24.6121387  74.3607373  46.7482249
  24.6501387  72.2367373  46.9832249  24.2721387  72.0677373  45.9752249
  25.3811387  71.4667373  47.2302249  23.4971387  72.1367373  47.9542249
  23.2101387  73.0787373  48.6912249  22.8271387  70.9907373  47.9632249
  22.0471387  70.8707373  48.5932249  23.1001387  70.2447373  47.3402249
  26.9481387  75.1697373  45.9872249  27.2851387  75.7937373  46.9892249
  26.9731387  75.7357373  44.8962249 152.1051387  30.6327373  31.5592249
 152.3701387  31.5387373  31.7352249 152.6901387  31.9207373  33.0812249
 153.5191387  31.3147373  33.4472249 151.8161387  31.7597373  33.7132249
 153.0811387  33.3867373  33.1352249 153.2311387  33.6897373  34.1712249
 154.3801387  33.5567373  32.5152249 154.4221387  34.7927373  31.8232249
 155.2961387  35.3587373  32.1442249 154.6921387  34.5127373  30.3842249
 154.3481387  33.3167373  29.8302249 153.8821387  32.5537373  30.4362249
 154.5821387  33.0637373  28.5212249 154.2771387  32.1107373  28.0882249
 155.2221387  34.1007373  27.7632249 155.4841387  33.9187373  26.4752249
 155.9351387  34.6727373  25.9772249 155.2351387  33.0507373  26.0222249
 155.5621387  35.2777373  28.3132249 155.3021387  35.5047373  29.6322249
 155.5981387  36.5747373  30.1882249 152.1711387  34.3367373  32.3582249
 151.8371387  33.9047373  31.4152249 153.0981387  35.5057373  32.0792249
 152.5231387  36.3357373  31.6672249 153.5761387  35.8207373  33.0072249
 151.0181387  34.7397373  33.1062249 149.9721387  35.7297373  32.4662249
 149.1001387  36.2837373  33.5362249 149.2691387  35.0877373  31.3312249
 150.9381387  36.8727373  31.9232249 151.3731387  37.9107373  32.8162249
 152.2771387  37.5927373  33.3362249 150.5921387  38.1107373  33.5492249
 151.6641387  39.1847373  32.0442249 151.9021387  39.9917373  32.7372249
 152.8741387  39.0037373  31.2682249 152.7571387  39.6877373  30.0322249
 153.6231387  40.3367373  29.8982249 152.8911387  38.6897373  28.9322249
 152.6151387  37.3447373  28.9522249 152.2471387  36.8807373  29.8552249
 152.8431387  36.7357373  27.8072249 153.2901387  37.7587373  26.9722249
 153.6911387  37.7177373  25.6162249 153.7341387  36.7607373  24.8492249
 154.0841387  38.9837373  25.1592249 154.3921387  39.0557373  24.2102249
 154.0851387  40.1427373  25.9202249 154.4951387  41.2537373  25.3082249
 154.8151387  41.3397373  24.3542249 154.5051387  42.0977373  25.8632249
 153.7091387  40.1797373  27.2002249 153.3251387  38.9557373  27.6532249
 150.6121387  39.5767373  31.0082249 150.2101387  38.7107373  30.4832249
 151.4221387  40.4237373  30.0422249 150.7511387  40.9077373  29.3322249
 151.9721387  41.1827373  30.5972249 149.5211387  40.3117373  31.5732249
 148.3461387  40.8117373  30.6482249 147.5571387  41.8447373  31.3692249
 147.5731387  39.6647373  30.1182249 149.1671387  41.4987373  29.4692249
 149.6221387  42.8517373  29.6222249 150.5961387  42.8577373  30.1112249
 148.9121387  43.4077373  30.2342249 149.7401387  43.5257373  28.2672249
 149.9941387  44.5777373  28.3982249 150.8711387  42.9657373  27.5542249
 150.5751387  42.8927373  26.1692249 151.3341387  43.3757373  25.5532249
 150.6611387  41.4647373  25.7492249 150.4761387  40.3507373  26.5162249
 150.1881387  40.4477373  27.5522249 150.6171387  39.2417373  25.8672249
 150.9071387  39.6537373  24.5752249 151.1611387  38.9417373  23.3872249
 151.1671387  37.6037373  23.3122249 151.3561387  37.1477373  22.4312249
 150.9831387  37.0507373  24.1372249 151.4201387  39.6637373  22.2802249
 151.4111387  40.9877373  22.3572249 151.6141387  41.5757373  21.4742249
 151.1821387  41.7647373  23.3952249 150.9361387  41.0137373  24.4892249
 148.5591387  43.3077373  27.3222249 148.1641387  42.2937373  27.3832249
 149.2011387  43.5197373  25.9612249 148.4271387  43.5527373  25.1952249
 149.7521387  44.4597373  25.9612249 147.4861387  44.2287373  27.5522249
 146.1881387  44.1607373  26.6602249 145.4101387  45.4157373  26.8272249
 145.4441387  42.9037373  26.9132249 146.8291387  44.1217373  25.2042249
 147.2021387  45.3537373  24.5652249 148.2201387  45.6217373  24.8502249
 146.5241387  46.1467373  24.8802249 147.1281387  45.2097373  23.0572249
 147.3211387  46.1737373  22.5862249 148.2131387  44.3607373  22.6052249
 147.7771387  43.5657373  21.5152249 148.4771387  43.6807373  20.6872249
 147.9171387  42.1317373  21.8982249 147.8991387  41.5697373  23.1522249
 147.7711387  42.1947373  24.0232249 148.0501387  40.2617373  23.1532249
 148.1631387  39.9417373  21.8002249 148.3451387  38.6847373  21.1762249
 148.4411387  37.5727373  21.6832249 148.4221387  38.8137373  19.7812249
 148.5581387  37.9777373  19.2492249 148.3311387  40.0077373  19.0822249
 148.4281387  39.9287373  17.7552249 148.5721387  39.0937373  17.2052249
 148.3711387  40.7987373  17.2462249 148.1621387  41.1927373  19.6752249
 148.0861387  41.0787373  21.0292249 145.8721387  44.5217373  22.5242249
 145.5571387  43.6927373  23.1582249 146.3491387  43.9837373  21.1862249
 145.4971387  43.6047373  20.6212249 146.8311387  44.7837373  20.6232249
 144.7681387  45.4217373  22.3722249 143.3901387  44.8897373  21.8222249
 142.5491387  46.0417373  21.4022249 142.7671387  43.9547373  22.7872249
 143.8741387  44.0877373  20.5332249 144.0901387  44.7977373  19.3032249
 145.1111387  45.1787373  19.2742249 143.3951387  45.6347373  19.2392249
 143.8671387  43.8777373  18.1172249 143.9411387  44.4467373  17.1902249
 144.9541387  42.9217373  18.0442249 144.4601387  41.6697373  17.5972249
 145.0221387  41.2937373  16.7422249 144.7391387  40.6547373  18.6542249
 144.8621387  41.0347373  19.9682249 144.7261387  42.0677373  20.2512249
 145.1071387  40.1337373  20.9252249 145.2551387  40.4897373  22.3762249
 144.3371387  40.9577373  22.7312249 145.4501387  39.5867373  22.9542249
 146.0861387  41.1847373  22.4972249 145.2571387  38.7297373  20.6112249
 145.4831387  37.8307373  21.4272249 145.1121387  38.4447373  19.2702249
 145.2171387  37.3997373  18.9782249 144.8541387  39.3517373  18.2572249
 144.7471387  38.9987373  17.0962249 142.6111387  43.0097373  18.1892249
 142.4241387  42.6397373  19.1972249 142.9791387  41.8467373  17.2822249
 142.1001387  41.2247373  17.1132249 143.3421387  42.2297373  16.3282249
 141.4371387  43.6897373  17.7292249 140.0491387  42.9427373  17.7192249
 139.0911387  43.6967373  16.8702249 139.5991387  42.6587373  19.1012249
 140.4481387  41.5837373  16.9932249 140.4821387  41.5367373  15.5572249
 141.4651387  41.8467373  15.2042249 139.7281387  42.2117373  15.1532249
 140.1981387  40.1277373  15.0692249 140.1331387  40.1217373  13.9812249
 141.3351387  39.2807373  15.3702249 140.8851387  37.9807373  15.7132249
 141.4111387  37.2477373  15.1012249 141.3441387  37.6777373  17.0992249
 141.6281387  38.5517373  18.1212249 141.5261387  39.6157373  17.9682249
 142.0161387  37.9627373  19.2342249 141.9701387  36.6037373  18.9222249
 142.2781387  35.4767373  19.7192249 142.6551387  35.4317373  20.8862249
 142.1071387  34.2827373  19.0032249 142.3071387  33.4277373  19.4822249
 141.6891387  34.1927373  17.6852249 141.5871387  32.9657373  17.1772249
 141.7921387  32.0947373  17.6452249 141.2911387  32.8997373  16.2142249
 141.4021387  35.2587373  16.9342249 141.5631387  36.4237373  17.6182249
 139.0211387  39.4247373  15.7432249 138.9691387  39.6437373  16.8102249
 139.3701387  37.9607373  15.5432249 138.5231387  37.3417373  15.8372249
 139.6031387  37.7827373  14.4932249 137.7601387  39.7567373  15.1492249
 136.4341387  39.1147373  15.7082249 135.3411387  39.3027373  14.7202249
 136.1541387  39.6017373  17.0792249 136.8461387  37.5767373  15.7582249
 136.7311387  36.7777373  14.5702249 137.6471387  36.8567373  13.9842249
 135.8931387  37.1347373  13.9712249 136.4951387  35.3237373  14.9322249
 136.3161387  34.7427373  14.0272249 137.7131387  34.7667373  15.4862249
 137.3941387  33.8437373  16.5132249 137.9021387  32.8997373  16.3152249
 138.0181387  34.3207373  17.7812249 138.3481387  35.6027373  18.1482249
 138.1571387  36.4247373  17.4742249 138.8911387  35.6927373  19.3442249
 138.9071387  34.3727373  19.7992249 139.3751387  33.8387373  21.0222249
 139.8771387  34.4177373  21.9792249 139.2131387  32.4467373  21.0672249
 139.5211387  31.9747373  21.8932249 138.6651387  31.6727373  20.0572249
 138.5941387  30.3607373  20.2842249 138.9071387  29.8687373  21.1092249
 138.2031387  29.7957373  19.5442249 138.2261387  32.1797373  18.9022249
 138.3781387  33.5307373  18.8472249 135.4481387  35.0807373  16.0182249
 135.4941387  35.8297373  16.8082249 135.8751387  33.7327373  16.5732249
 135.1091387  33.3607373  17.2542249 136.0061387  33.0267373  15.7532249
 134.1121387  35.0447373  15.5042249 132.9001387  34.7907373  16.4802249
 131.6981387  34.4257373  15.6882249 132.7341387  35.9277373  17.4152249
 133.4211387  33.5137373  17.2762249 133.2361387  32.2077373  16.7082249
 134.0771387  31.9677373  16.0572249 132.3171387  32.1927373  16.1232249
 133.1411387  31.1637373  17.8052249 132.9081387  30.1917373  17.3702249
 134.4471387  30.9867373  18.4092249 134.3041387  30.7447373  19.7982249
 134.8181387  29.8397373  20.1212249 135.0241387  31.8207373  20.5362249
 135.2881387  33.0927373  20.1192249 134.9191387  33.4367373  19.1642249
 135.9361387  33.8027373  20.9842249 136.1051387  32.9367373  22.0542249
 136.7181387  33.0917373  23.3132249 137.3051387  34.2277373  23.7142249
 137.7291387  34.2817373  24.6292249 137.3231387  35.0307373  23.1012249
 136.7131387  32.0257373  24.1362249 136.1291387  30.9057373  23.7362249
 136.1161387  30.0467373  24.3912249 135.5191387  30.6377373  22.6012249
 135.5501387  31.7197373  21.7932249 132.2351387  31.5277373  18.9802249
 132.3131387  32.5817373  19.2472249 132.8111387  30.6777373  20.0992249
 132.1491387  30.7187373  20.9642249 132.9031387  29.6457373  19.7612249
 130.8571387  31.2227373  18.7352249 129.7771387  31.5197373  19.8442249
 128.5251387  30.7867373  19.5212249 129.6331387  32.9787373  20.0572249
 130.4671387  30.8567373  21.1182249 130.3141387  29.4477373  21.3472249
 131.0951387  28.9027373  20.8182249 129.3411387  29.1227373  20.9792249
 130.4091387  29.1407373  22.8312249 130.1981387  28.0857373  23.0042249
 131.7811387  29.3127373  23.2662249 131.8031387  29.8417373  24.5812249
 132.4341387  29.2167373  25.2132249 132.5211387  31.1467373  24.5472249
 132.5661387  31.8877373  23.4042249 132.0871387  31.5287373  22.5052249
 133.2081387  33.0797373  23.3742249 133.2101387  33.6737373  22.4602249
 133.8481387  33.5047373  24.5862249 134.4971387  34.6627373  24.6262249
 134.9341387  34.9257373  25.4982249 134.5431387  35.2487373  23.8052249
 133.8031387  32.7707373  25.7102249 133.1381387  31.5797373  25.7102249
 133.0691387  30.8637373  26.7222249 129.6101387  30.0697373  23.7442249
 129.6431387  31.1057373  23.4082249 130.3591387  29.9397373  25.0592249
 129.7931387  30.4307373  25.8502249 130.4841387  28.8847373  25.3042249
 128.2381387  29.6767373  23.8742249 127.2641387  30.5127373  24.7892249
 126.0381387  29.7157373  25.0592249 127.0431387  31.8627373  24.2222249
 128.1301387  30.6247373  26.1202249 128.1001387  29.5487373  27.0722249
 128.8571387  28.8087373  26.8122249 127.1181387  29.0757373  27.0562249
 128.3741387  30.0737373  28.4702249 128.2571387  29.2687373  29.1962249
 129.7691387  30.4527373  28.5712249 129.8941387  31.5967373  29.4002249
 130.6341387  31.3957373  30.1742249 130.5131387  32.6887373  28.5962249
 130.4821387  32.8797373  27.2352249 129.9561387  32.1807373  26.6022249
 131.1341387  33.9507373  26.8312249 131.6161387  34.5097373  28.0152249
 132.3911387  35.6747373  28.2212249 132.8211387  36.4757373  27.3982249
 132.6711387  35.8687373  29.5822249 133.2231387  36.6647373  29.8282249
 132.2501387  35.0417373  30.6112249 132.6181387  35.3917373  31.8432249
 133.1801387  36.1887373  32.1062249 132.3191387  34.7847373  32.5932249
 131.5201387  33.9407373  30.4132249 131.2421387  33.7417373  29.0962249
 127.6141387  31.3407373  28.8542249 127.5391387  32.0417373  28.0232249
 128.5061387  31.9287373  29.9342249 127.9941387  32.7617373  30.4162249
 128.7311387  31.1627373  30.6762249 126.2941387  31.0727373  29.3432249
 125.3681387  32.2627373  29.8002249 124.2361387  31.7277373  30.6002249
 124.9941387  33.1097373  28.6432249 126.3601387  33.0657373  30.7532249
 126.5071387  32.6547373  32.1222249 127.2821387  31.8917373  32.1942249
 125.5641387  32.2417373  32.4812249 126.8911387  33.8397373  32.9892249
 126.9071387  33.5397373  34.0372249 128.2591387  34.2187373  32.6992249
 128.3921387  35.6277373  32.7812249 129.1981387  35.9347373  33.4472249
 128.8441387  36.1317373  31.4532249 128.6451387  35.5657373  30.2282249
 128.0591387  34.6627373  30.1382249 129.1581387  36.2397373  29.2512249
 129.7321387  37.3357373  29.8782249 130.4381387  38.4497373  29.3822249
 130.6991387  38.6417373  28.0832249 131.2101387  39.4607373  27.7862249
 130.3851387  37.9677373  27.4002249 130.8741387  39.3507373  30.2832249
 130.6111387  39.1587373  31.5682249 130.9521387  39.8787373  32.2972249
 129.9611387  38.1747373  32.1512249 129.5461387  37.2827373  31.2272249
 126.0901387  35.1167373  32.7452249 125.8791387  35.2727373  31.6872249
 127.0491387  36.1887373  33.2332249 126.5341387  37.1487373  33.2682249
 127.4051387  35.9317373  34.2312249 124.8511387  35.1437373  33.4642249
 123.8991387  36.3937373  33.3442249 122.8981387  36.3587373  34.4432249
 123.3461387  36.4997373  31.9732249 124.9291387  37.5797373  33.6002249
 125.2481387  37.9557373  34.9502249 126.0771387  37.3487373  35.3142249
 124.3791387  37.7927373  35.5882249 125.6391387  39.4207373  35.0112249
 125.7881387  39.7197373  36.0492249 126.9391387  39.5937373  34.3932249
 126.9821387  40.8337373  33.7072249 127.8591387  41.3917373  34.0342249
 127.2541387  40.5607373  32.2672249 126.9741387  39.4307373  31.5372249
 126.4921387  38.5867373  32.0092249 127.3451387  39.5037373  30.2762249
 127.8981387  40.7807373  30.1682249 128.4691387  41.4327373  29.0512249
 128.6081387  41.0257373  27.9022249 128.9211387  42.7177373  29.3852249
 129.3511387  43.2557373  28.6602249 128.8271387  43.2977373  30.6402249
 129.3151387  44.5307373  30.7642249 129.7571387  45.0847373  30.0442249
 129.2541387  44.9497373  31.6812249 128.2901387  42.6787373  31.6942249
 127.8481387  41.4297373  31.3822249 124.7301387  40.3737373  34.2382249
 124.3971387  39.9457373  33.2922249 125.6591387  41.5457373  33.9652249
 125.0851387  42.3777373  33.5572249 126.1361387  41.8557373  34.8952249
 123.5761387  40.7737373  34.9872249 122.5321387  41.7697373  34.3512249
 121.6591387  42.3167373  35.4222249 121.8301387  41.1317373  33.2122249
 123.4981387  42.9147373  33.8152249 123.9331387  43.9467373  34.7132249
 124.8371387  43.6247373  35.2312249 123.1521387  44.1437373  35.4472249
 124.2251387  45.2237373  33.9482249 124.4621387  46.0257373  34.6482249
 125.4371387  45.0487373  33.1722249 125.3211387  45.7387373  31.9392249
 126.1631387  46.4097373  31.7702249 125.4561387  44.7457373  30.8352249
 125.1261387  43.4277373  31.0392249 124.7321387  43.1067373  31.9922249
 125.2401387  42.5297373  30.0552249 124.8981387  41.0777373  30.2202249
 123.8491387  40.9807373  30.4992249 125.0741387  40.5537373  29.2812249
 125.5231387  40.6427373  31.0012249 125.7171387  42.9107373  28.7442249
 125.8521387  42.1527373  27.7782249 126.0171387  44.2517373  28.6342249
 126.3841387  44.5917373  27.6662249 125.9071387  45.2077373  29.6302249
 126.2031387  46.3717373  29.4332249 123.1751387  45.6227373  32.9132249
 122.7741387  44.7587373  32.3832249 123.9861387  46.4747373  31.9522249
 123.3161387  46.9637373  31.2452249 124.5371387  47.2307373  32.5122249
 122.0831387  46.3547373  33.4802249 120.9101387  46.8597373  32.5562249
 120.1201387  47.8887373  33.2822249 120.1371387  45.7157373  32.0192249
 121.7321387  47.5517373  31.3822249 122.1871387  48.9047373  31.5422249
 123.1601387  48.9087373  32.0332249 121.4761387  49.4577373  32.1562249
 122.3071387  49.5857373  30.1912249 122.5611387  50.6367373  30.3282249
 123.4381387  49.0287373  29.4772249 123.1441387  48.9627373  28.0912249
 123.9451387  49.4477373  27.5332249 123.2301387  47.5367373  27.6642249
 123.0501387  46.4007373  28.4152249 122.8131387  46.4787373  29.4662249
 123.1961387  45.2817373  27.7352249 123.4821387  45.7177373  26.4412249
 123.7391387  44.9727373  25.2662249 123.7671387  43.7567373  25.1112249
 123.9941387  45.8127373  24.1732249 124.1961387  45.3777373  23.2962249
 123.9961387  47.1987373  24.2132249 124.2621387  47.8257373  23.0672249
 124.4731387  47.3997373  22.1762249 124.2721387  48.8357373  23.0972249
 123.7561387  47.8997373  25.3232249 123.5061387  47.0947373  26.3912249
 121.1281387  49.3737373  29.2442249 120.7331387  48.3597373  29.3002249
 121.7711387  49.5917373  27.8862249 120.9971387  49.6317373  27.1192249
 122.3251387  50.5307373  27.8922249 120.0541387  50.2927373  29.4772249
 118.7571387  50.2297373  28.5832249 117.9791387  51.4847373  28.7552249
 118.0131387  48.9727373  28.8292249 119.4001387  50.1987373  27.1272249
 119.7741387  51.4327373  26.4962249 120.7911387  51.6977373  26.7842249
 119.0951387  52.2247373  26.8142249 119.7021387  51.2967373  24.9862249
 119.8961387  52.2627373  24.5192249 120.7871387  50.4497373  24.5312249
 120.3521387  49.6607373  23.4372249 121.0471387  49.7767373  22.6052249
 120.4901387  48.2247373  23.8132249 120.4541387  47.8397373  25.1192249
 120.3331387  48.5777373  25.8982249 120.5681387  46.5357373  25.4632249
 120.5101387  46.2417373  26.5112249 120.7481387  45.5947373  24.3942249
 120.8691387  44.2997373  24.6602249 120.9941387  43.6697373  23.8802249
 120.8351387  43.9707373  25.6142249 120.7861387  45.9787373  23.1072249
 120.6571387  47.2997373  22.7952249 120.6871387  47.7057373  21.6212249
 118.4461387  50.6127373  24.4492249 118.1311387  49.7807373  25.0782249
 118.9241387  50.0817373  23.1092249 118.0721387  49.7067373  22.5412249
 119.4071387  50.8837373  22.5512249 117.3421387  51.5137373  24.3002249
 115.9651387  50.9847373  23.7452249 115.1251387  52.1387373  23.3312249
 115.3401387  50.0447373  24.7052249 116.4501387  50.1897373  22.4532249
 116.6681387  50.9057373  21.2272249 117.6891387  51.2857373  21.2012249
 115.9731387  51.7437373  21.1662249 116.4461387  49.9917373  20.0362249
 116.5221387  50.5657373  19.1132249 117.5321387  49.0357373  19.9592249
 117.0391387  47.7857373  19.5072249 117.6321387  47.4477373  18.6572249
 117.3161387  46.7657373  20.5582249 117.4451387  47.1297373  21.8652249
 117.3561387  48.1677373  22.1502249 117.6851387  46.2047373  22.8232249
 117.7581387  46.5087373  23.8672249 117.8161387  44.8417373  22.3932249
 118.0541387  43.8827373  23.2792249 118.1391387  42.9367373  22.9352249
 118.1441387  44.1067373  24.2602249 117.6901387  44.4867373  21.1022249
 117.4371387  45.4437373  20.1642249 117.3141387  45.1677373  18.9602249
 115.1901387  49.1237373  20.1012249 115.0031387  48.7497373  21.1082249
 115.5581387  47.9647373  19.1912249 114.6781387  47.3447373  19.0172249
 115.9231387  48.3507373  18.2402249 114.0161387  49.8067373  19.6442249
 112.6281387  49.0607373  19.6302249 111.6711387  49.8187373  18.7832249
 112.1761387  48.7687373  21.0102249 113.0271387  47.7047373  18.8962249
 113.0631387  47.6647373  17.4612249 114.0461387  47.9767373  17.1092249
 112.3101387  48.3417373  17.0592249 112.7791387  46.2587373  16.9652249
 112.7161387  46.2577373  15.8772249 113.9151387  45.4087373  17.2642249
 113.4651387  44.1077373  17.6002249 113.9581387  43.3417373  17.0022249
 113.9221387  43.7987373  18.9842249 114.1571387  44.8107373  19.8822249
 113.9791387  45.8377373  19.6012249 114.5631387  44.5467373  21.1282249
 114.8381387  45.6097373  22.1502249 113.9321387  46.1907373  22.3232249
 115.1541387  45.1437373  23.0832249 115.6281387  46.2677373  21.7872249
 114.7741387  43.1857373  21.5732249 115.1461387  42.8487373  22.7022249
 114.5091387  42.2397373  20.6062249 114.6561387  41.1977373  20.8892249
 114.0831387  42.4807373  19.3102249 113.8791387  41.5717373  18.5272249
 111.6011387  45.5527373  17.6352249 111.5471387  45.7647373  18.7032249
 111.9501387  44.0897373  17.4272249 111.1031387  43.4687373  17.7182249
 112.1831387  43.9167373  16.3762249 110.3411387  45.8887373  17.0402249
 109.0141387  45.2427373  17.5952249 107.9221387  45.4377373  16.6062249
 108.7321387  45.7227373  18.9682249 109.4261387  43.7047373  17.6382249
 109.3121387  42.9127373  16.4442249 110.2291387  42.9947373  15.8612249
 108.4751387  43.2737373  15.8462249 109.0751387  41.4567373  16.8002249
 108.8971387  40.8807373  15.8922249 110.2921387  40.8967373  17.3522249
 109.9711387  39.9677373  18.3742249 110.4751387  39.0217373  18.1752249
 110.5941387  40.4377373  19.6442249 110.8591387  41.7597373  19.8422249
 110.6271387  42.4807373  19.0722249 111.4141387  42.1907373  20.9992249
 111.5971387  43.2547373  21.1512249 111.7221387  41.1937373  21.9842249
 112.2701387  41.5467373  23.1402249 112.4721387  40.8157373  23.8072249
 112.4731387  42.5177373  23.3322249 111.4611387  39.8907373  21.7842249
 110.8921387  39.4917373  20.6112249 110.6321387  38.2997373  20.3782249
 108.0261387  41.2077373  17.8832249 108.0721387  41.9527373  18.6772249
 108.4521387  39.8567373  18.4312249 107.6851387  39.4807373  19.1082249
 108.5851387  39.1557373  17.6072249 106.6901387  41.1757373  17.3672249
 105.4781387  40.9167373  18.3412249 104.2761387  40.5567373  17.5452249
 105.3111387  42.0497373  19.2822249 105.9971387  39.6357373  19.1302249
 105.8121387  38.3317373  18.5562249 106.6531387  38.0947373  17.9052249
 104.8931387  38.3187373  17.9702249 105.7161387  37.2827373  19.6482249
 105.4831387  36.3127373  19.2082249 107.0211387  37.1027373  20.2522249
 106.8761387  36.8537373  21.6392249 107.4191387  35.9467373  21.9042249
 107.5961387  37.9257373  22.3842249 107.7891387  39.1527373  21.8242249
 107.4281387  39.3567373  20.8272249 108.4321387  40.1317373  22.5022249
 108.5551387  41.1157373  22.0502249 108.9121387  39.8067373  23.8152249
 109.5541387  40.7187373  24.5342249 109.8761387  40.4507373  25.4532249
 109.7081387  41.6447373  24.1622249 108.7221387  38.5947373  24.3622249
 108.0601387  37.6337373  23.6562249 107.8601387  36.4977373  24.1172249
 104.8091387  37.6417373  20.8232249 104.8871387  38.6937373  21.0962249
 105.3831387  36.7857373  21.9382249 104.7211387  36.8227373  22.8032249
 105.4751387  35.7547373  21.5952249 103.4311387  37.3377373  20.5762249
 102.3501387  37.6297373  21.6852249 101.0981387  36.8997373  21.3562249
 102.2061387  39.0877373  21.9042249 103.0381387  36.9607373  22.9552249
 102.8841387  35.5487373  23.1782249 103.6671387  35.0067373  22.6472249
 101.9111387  35.2257373  22.8072249 102.9771387  35.2357373  24.6602249
 102.7661387  34.1797373  24.8282249 104.3491387  35.4057373  25.0972249
 104.3701387  35.9277373  26.4152249 105.0041387  35.2967373  27.0382249
 105.0891387  37.2327373  26.3892249 105.2331387  38.1147373  25.3442249
 104.7911387  37.8947373  24.3832249 105.9341387  39.1887373  25.6462249
 106.2611387  39.0017373  26.9892249 107.0071387  39.8247373  27.8662249
 107.5401387  40.9077373  27.6472249 107.1111387  39.2507373  29.1412249
 107.6291387  39.7557373  29.8322249 106.5591387  38.0357373  29.5192249
 106.7671387  37.6567373  30.7792249 107.2931387  38.1537373  31.4842249
 106.3731387  36.7677373  31.0542249 105.8581387  37.2597373  28.6892249
 105.7511387  37.8087373  27.4472249 102.1771387  36.1587373  25.5762249
 102.2111387  37.1967373  25.2442249 102.9251387  36.0237373  26.8922249
 102.3571387  36.5097373  27.6852249 103.0521387  34.9677373  27.1322249
 100.8051387  35.7667373  25.7022249  99.8311387  36.5987373  26.6212249
  98.6051387  35.8007373  26.8862249  99.6101387  37.9517373  26.0602249
 100.6951387  36.7027373  27.9552249 100.6641387  35.6227373  28.9012249
 101.4201387  34.8827373  28.6392249  99.6821387  35.1497373  28.8822249
 100.9361387  36.1387373  30.3012249 100.8181387  35.3297373  31.0222249
 102.3311387  36.5187373  30.4072249 102.4561387  37.6587373  31.2402249
 103.1951387  37.4527373  32.0142249 103.0761387  38.7537373  30.4422249
 103.0471387  38.9517373  29.0832249 102.5221387  38.2557373  28.4462249
 103.6991387  40.0247373  28.6852249 104.1801387  40.5777373  29.8732249
 104.9561387  41.7407373  30.0852249 105.3861387  42.5467373  29.2662249
 105.2341387  41.9277373  31.4472249 105.7841387  42.7237373  31.6992249
 104.8121387  41.0947373  32.4712249 105.1781387  41.4397373  33.7062249
 105.7391387  42.2357373  33.9742249 104.8791387  40.8287373  34.4532249
 104.0821387  39.9957373  32.2682249 103.8051387  39.8047373  30.9482249
 100.1761387  37.4067373  30.6912249 100.1021387  38.1137373  29.8642249
 101.0671387  37.9877373  31.7752249 100.5551387  38.8187373  32.2602249
 101.2901387  37.2177373  32.5142249  98.8561387  37.1357373  31.1772249
  97.9291387  38.3237373  31.6392249  96.7961387  37.7847373  32.4352249
  97.5571387  39.1767373  30.4852249  98.9211387  39.1197373  32.5972249
  99.0661387  38.7037373  33.9642249  99.8401387  37.9387373  34.0352249
  98.1231387  38.2897373  34.3202249  99.4491387  39.8827373  34.8382249
  99.4641387  39.5767373  35.8842249 100.8181387  40.2647373  34.5512249
 100.9511387  41.6727373  34.6402249 101.7651387  41.9607373  35.3062249
 101.4051387  42.1827373  33.3152249 101.1201387  41.4867373  32.1662249
 100.5341387  40.5807373  32.2112249 101.5181387  41.9357373  30.9722249
 101.2401387  41.2167373  29.6852249 100.1631387  41.1217373  29.5462249
 101.6651387  41.7807373  28.8542249 101.6901387  40.2247373  29.7182249
 102.2651387  43.1677373  30.8462249 102.6711387  43.6587373  29.7882249
 102.4981387  43.7987373  32.0502249 103.0591387  44.7327373  32.0122249
 102.0971387  43.3617373  33.3032249 102.3571387  43.9917373  34.3112249
  98.6491387  41.1627373  34.5992249  98.4391387  41.3257373  33.5422249
  99.6071387  42.2317373  35.0952249  99.0931387  43.1917373  35.1332249
  99.9601387  41.9697373  36.0922249  97.4101387  41.1857373  35.3182249
  96.4571387  42.4367373  35.2022249  95.4561387  42.3967373  36.2992249
  95.9061387  42.5497373  33.8312249  97.4881387  43.6217373  35.4662249
  97.8061387  43.9907373  36.8182249  98.6341387  43.3807373  37.1792249
  96.9371387  43.8247373  37.4542249  98.1971387  45.4547373  36.8872249
  98.3441387  45.7477373  37.9262249  99.4981387  45.6307373  36.2722249
  99.5421387  46.8737373  35.5922249 100.3911387  47.4867373  35.8952249
  99.8161387  46.6087373  34.1512249  99.5271387  45.4827373  33.4352249
  98.9981387  44.6647373  33.9012249  99.8871387  45.5467373  32.1942249
 100.4471387  46.8097373  32.0822249 101.0191387  47.5017373  30.9962249
 101.1281387  46.9837373  29.7642249 101.5481387  47.5267373  29.0232249
 100.7901387  46.0507373  29.5772249 101.4851387  48.7417373  31.2332249
 101.3741387  49.2507373  32.4522249 101.7421387  50.2467373  32.6512249
 100.8571387  48.7167373  33.5392249 100.4091387  47.4707373  33.2732249
  97.2891387  46.4127373  36.1172249  96.9561387  45.9907373  35.1692249
  98.2191387  47.5847373  35.8512249  97.6461387  48.4187373  35.4452249
  98.6941387  47.8907373  36.7832249  96.1351387  46.8097373  36.8672249
  95.0911387  47.8067373  36.2352249  94.2171387  48.3507373  37.3072249
  94.3911387  47.1767373  35.0922249  96.0591387  48.9557373  35.7062249
  96.4931387  49.9837373  36.6112249  97.3951387  49.6597373  37.1302249
  95.7101387  50.1767373  37.3442249  96.7871387  51.2647373  35.8522249
  97.0241387  52.0637373  36.5542249  97.9991387  51.0917373  35.0762249
  97.8841387  51.7877373  33.8462249  98.7471387  52.4417373  33.7182249
  98.0211387  50.8027373  32.7372249  97.7021387  49.4907373  32.9282249
  97.3551387  49.1517373  33.8932249  97.8141387  48.5947373  31.9192249
  97.5311387  47.5547373  32.0812249  98.2991387  49.0887373  30.6622249
  98.4361387  48.2647373  29.6302249  98.7801387  48.6517373  28.7632249
  98.2001387  47.2877373  29.7242249  98.6151387  50.3817373  30.4792249
  98.4801387  51.2607373  31.5132249  98.7601387  52.4647373  31.3962249
  95.7381387  51.6677373  34.8172249  95.3371387  50.8077373  34.2812249
  96.5501387  52.5257373  33.8622249  95.8811387  53.0187373  33.1572249
  97.1001387  53.2787373  34.4272249  94.6451387  52.3987373  35.3872249
  93.4731387  52.9087373  34.4652249  92.6831387  53.9337373  35.1952249
  92.7011387  51.7677373  33.9212249  94.2971387  53.6057373  33.2942249
  94.7521387  54.9587373  33.4622249  95.7241387  54.9607373  33.9552249
  94.0401387  55.5087373  34.0782249  94.8741387  55.6457373  32.1152249
  95.1291387  56.6957373  32.2582249  96.0061387  55.0917373  31.3982249
  95.7131387  55.0327373  30.0132249  96.5141387  55.5207373  29.4582249
  95.7991387  53.6097373  29.5782249  95.6181387  52.4697373  30.3232249
  95.3791387  52.5427373  31.3742249  95.7651387  51.3547373  29.6382249
  96.0521387  51.7967373  28.3472249  96.3101387  51.0567373  27.1692249
  96.3371387  49.8417373  27.0062249  96.5671387  51.9027373  26.0802249
  96.7711387  51.4707373  25.2012249  96.5691387  53.2887373  26.1262249
  96.8371387  53.9217373  24.9842249  97.0501387  53.5007373  24.0912249
  96.8471387  54.9307373  25.0192249  96.3281387  53.9847373  27.2402249
  96.0771387  53.1727373  28.3042249  93.6961387  55.4387373  31.1652249
  93.3011387  54.4237373  31.2172249  94.3401387  55.6627373  29.8082249
  93.5671387  55.7057373  29.0412249  94.8931387  56.6017373  29.8182249
  92.6221387  56.3567373  31.4022249  91.3261387  56.2997373  30.5062249
  90.5491387  57.5537373  30.6842249  90.5811387  55.0407373  30.7442249
  91.9701387  56.2747373  29.0502249  92.3461387  57.5127373  28.4262249
  93.3631387  57.7767373  28.7162249  91.6671387  58.3027373  28.7472249
  92.2761387  57.3847373  26.9162249  92.4711387  58.3527373  26.4542249
  93.3611387  56.5387373  26.4582249  92.9271387  55.7557373  25.3602249
  93.5801387  55.8507373  24.4932249  93.0641387  54.3177373  25.7282249
  93.0371387  53.7647373  26.9752249  92.8541387  54.3857373  27.8402249
  93.1841387  52.4797373  26.9792249  93.3091387  52.1617373  25.6352249
  93.4841387  50.9357373  24.9632249  93.5721387  49.7537373  25.5892249
  93.6971387  48.9067373  25.0532249  93.5131387  49.7097373  26.5962249
  93.5761387  50.9787373  23.6202249  93.4851387  52.1487373  23.0042249
  93.5531387  52.1927373  21.9272249  93.3141387  53.3517373  23.5122249
  93.2361387  53.2777373  24.8592249  91.0201387  56.7027373  26.3742249
  90.7041387  55.8667373  26.9982249  91.4991387  56.1787373  25.0312249
  90.6481387  55.8077373  24.4612249  91.9831387  56.9837373  24.4782249
  89.9161387  57.6047373  26.2282249  88.5401387  57.0797373  25.6692249
  87.7011387  58.2367373  25.2602249  87.9131387  56.1357373  26.6232249
  89.0261387  56.2907373  24.3732249  89.2461387  57.0127373  23.1512249
  90.2681387  57.3907373  23.1282249  88.5521387  57.8517373  23.0942249
  89.0241387  56.1047373  21.9562249  89.1011387  56.6837373  21.0362249
  90.1101387  55.1487373  21.8752249  89.6181387  53.9017373  21.4152249
  90.2181387  53.5727373  20.5672249  89.8931387  52.8767373  22.4612249
  90.0441387  53.0487373  23.8162249  89.9651387  54.0347373  24.2492249
  90.2831387  51.9317373  24.4732249  90.2761387  50.9557373  23.4772249
  90.4751387  49.5577373  23.5722249  90.6991387  48.8717373  24.5632249
  90.3961387  48.9437373  22.3132249  90.5311387  47.9537373  22.2762249
  90.1521387  49.5997373  21.1172249  90.1141387  48.8427373  20.0212249
  90.2551387  47.8437373  19.9672249  89.9451387  49.3217373  19.1482249
  89.9661387  50.9197373  21.0292249  90.0411387  51.5257373  22.2462249
  87.7681387  55.2377373  22.0152249  87.5781387  54.8587373  23.0192249
  88.1371387  54.0837373  21.0992249  87.2581387  53.4647373  20.9212249
  88.5031387  54.4757373  20.1502249  86.5961387  55.9237373  21.5602249
  85.2071387  55.1767373  21.5402249  84.2511387  55.9407373  20.6962249
  84.7531387  54.8787373  22.9182249  85.6061387  53.8257373  20.8002249
  85.6441387  53.7917373  19.3652249  86.6281387  54.1047373  19.0172249
  84.8921387  54.4717373  18.9652249  85.3601387  52.3897373  18.8612249
  85.2981387  52.3947373  17.7732249  86.4951387  51.5377373  19.1562249
  86.0441387  50.2347373  19.4852249  86.5661387  49.5037373  18.8682249
  86.5001387  49.9177373  20.8692249  86.7411387  50.9137373  21.7672249
  86.6121387  51.9467373  21.4792249  87.1441387  50.6287373  23.0282249
  87.3071387  51.4357373  23.7422249  87.3211387  49.2417373  23.3572249
  87.7161387  48.8917373  24.5742249  87.8291387  47.9067373  24.7662249
  87.8941387  49.5977373  25.2742249  87.0841387  48.2647373  22.4662249
  86.6691387  48.5857373  21.2082249  86.4381387  47.7187373  20.3492249
  84.1811387  51.6807373  19.5262249  84.1261387  51.8877373  20.5952249
  84.5291387  50.2177373  19.3112249  83.6811387  49.5957373  19.5982249
  84.7631387  50.0497373  18.2602249  82.9221387  52.0197373  18.9322249
  81.5941387  51.3717373  19.4822249  80.5031387  51.5717373  18.4922249
  81.3111387  51.8457373  20.8562249  82.0051387  49.8337373  19.5172249
  81.8921387  49.0467373  18.3202249  82.8091387  49.1307373  17.7372249
  81.0561387  49.4107373  17.7232249  81.6541387  47.5887373  18.6672249
  81.4771387  47.0167373  17.7562249  82.8711387  47.0257373  19.2192249
  82.5481387  46.0927373  20.2352249  83.0251387  45.1277373  20.0652249
  83.1691387  46.5547373  21.5082249  83.4281387  47.8897373  21.7112249
  83.1521387  48.6167373  20.9622249  83.9811387  48.3187373  22.8512249
  84.2891387  49.7607373  23.1272249  83.3691387  50.3437373  23.0852249
  84.7331387  49.8547373  24.1182249  84.9891387  50.1327373  22.3792249
  84.3311387  47.3947373  23.9072249  84.8421387  47.6997373  24.9892249
  84.0301387  46.0807373  23.6152249  84.2771387  45.3417373  24.3772249
  83.4541387  45.6057373  22.4482249  83.2321387  44.4197373  22.2852249
  80.6041387  47.3357373  19.7482249  80.6491387  48.0767373  20.5462249
  81.0291387  45.9817373  20.2902249  80.2611387  45.6027373  20.9652249
  81.1621387  45.2837373  19.4632249  79.2691387  47.3057373  19.2312249
  78.0551387  47.0437373  20.2022249  76.8541387  46.6867373  19.4022249
  77.8881387  48.1717373  21.1472249  78.5731387  45.7577373  20.9852249
  78.3891387  44.4567373  20.4032249  79.2321387  44.2237373  19.7522249
  77.4711387  44.4477373  19.8152249  78.2911387  43.4017373  21.4902249
  78.0581387  42.4347373  21.0452249  79.5951387  43.2187373  22.0942249
  79.4481387  42.9617373  23.4812249  79.9961387  42.0547373  23.7352249
  80.1681387  44.0307373  24.2322249  80.4471387  45.3187373  23.8412249
  80.1311387  45.6707373  22.8702249  81.1061387  46.0187373  24.7422249
  81.2581387  45.1287373  25.8042249  81.8871387  45.3097373  27.0592249
  82.4471387  46.3037373  27.5102249  81.8251387  44.1417373  27.8352249
  82.2501387  44.1677373  28.7402249  81.2271387  42.9537373  27.4452249
  81.2701387  41.9517373  28.3232249  81.7011387  41.9617373  29.2362249
  80.8421387  41.0827373  28.0372249  80.6361387  42.7847373  26.2602249
  80.6901387  43.9117373  25.4992249  77.3821387  43.7547373  22.6662249
  77.4611387  44.8057373  22.9432249  77.9551387  42.8937373  23.7772249
  77.2911387  42.9257373  24.6412249  78.0481387  41.8647373  23.4292249
  76.0041387  43.4537373  22.4162249  74.9221387  43.7407373  23.5262249
  73.6701387  43.0127373  23.1912249  74.7781387  45.1977373  23.7522249
  75.6081387  43.0637373  24.7932249  75.4541387  41.6517373  25.0082249
  76.2371387  41.1117373  24.4752249  74.4821387  41.3307373  24.6352249
  75.5461387  41.3307373  26.4892249  75.3341387  40.2737373  26.6512249
  76.9161387  41.4977373  26.9292249  76.9361387  42.0127373  28.2492249
  77.5511387  41.4037373  28.9112249  77.6561387  43.3177373  28.2292249
  77.6941387  44.0747373  27.0842249  77.1751387  43.7447373  26.1962249
  78.3321387  45.2497373  27.0562249  78.4101387  46.1177373  25.8342249
  77.4041387  46.3957373  25.5212249  78.9811387  47.0177373  26.0632249
  78.9021387  45.5707373  25.0302249  79.0091387  45.7627373  28.2262249
  79.6201387  46.8337373  28.2922249  78.9111387  44.9377373  29.3272249
  79.4051387  45.2767373  30.2372249  78.2551387  43.7187373  29.3902249
  78.2311387  43.0617373  30.4142249  74.7451387  42.2497373  27.4092249
  74.7791387  43.2897373  27.0832249  75.4911387  42.1067373  28.7242249
  74.9231387  42.5887373  29.5192249  75.6171387  41.0497373  28.9582249
  73.3721387  41.8567373  27.5322249  72.3981387  42.6847373  28.4532249
  71.1711387  41.8867373  28.7122249  72.1781387  44.0407373  27.8992249
  73.2601387  42.7817373  29.7882249  73.2271387  41.6967373  30.7292249
  73.9841387  40.9587373  30.4642249  72.2451387  41.2247373  30.7062249
  73.4981387  42.2067373  32.1322249  73.3791387  41.3937373  32.8492249
  74.8931387  42.5847373  32.2402249  75.0181387  43.7197373  33.0812249
  75.7541387  43.5157373  33.8592249  75.6391387  44.8197373  32.2892249
  75.5131387  44.8587373  30.9332249  74.9661387  44.0837373  30.4172249
  76.0661387  45.8617373  30.2132249  75.9351387  45.8907373  29.1312249
  76.7991387  46.8587373  30.9412249  77.3701387  47.8697373  30.2992249
  77.8761387  48.5487373  30.8492249  77.2921387  47.9437373  29.2952249
  76.9221387  46.8147373  32.2792249  76.3441387  45.7957373  32.9752249
  76.4301387  45.7097373  34.2112249  72.7381387  43.4707373  32.5282249
  72.6661387  44.1797373  31.7032249  73.6281387  44.0477373  33.6162249
  73.1141387  44.8747373  34.1052249  73.8521387  43.2747373  34.3512249
  71.4171387  43.1997373  33.0112249  70.4911387  44.3857373  33.4782249
  69.3571387  43.8417373  34.2702249  70.1201387  45.2437373  32.3282249
  71.4821387  45.1767373  34.4412249  71.6251387  44.7527373  35.8062249
  72.3991387  43.9887373  35.8732249  70.6811387  44.3367373  36.1592249
  72.0071387  45.9277373  36.6862249  72.0211387  45.6157373  37.7302249
  73.3761387  46.3097373  36.4032249  73.5101387  47.7167373  36.4992249
  74.3231387  48.0007373  37.1682249  73.9661387  48.2347373  35.1782249
  73.6821387  47.5437373  34.0242249  73.0961387  46.6377373  34.0632249
  74.0821387  47.9997373  32.8332249  73.8041387  47.2857373  31.5422249
  72.7271387  47.1927373  31.4032249  74.2291387  47.8527373  30.7142249
  74.2541387  46.2927373  31.5712249  74.8291387  49.2317373  32.7142249
  75.2371387  49.7277373  31.6592249  75.0611387  49.8557373  33.9222249
  75.6241387  50.7887373  33.8902249  74.6581387  49.4127373  35.1712249
  74.9171387  50.0377373  36.1832249  71.2081387  47.2087373  36.4542249
  70.9991387  47.3757373  35.3972249  72.1661387  48.2737373  36.9552249
  71.6521387  49.2337373  36.9992249  72.5191387  48.0057373  37.9512249
  69.9681387  47.2287373  37.1712249  69.0161387  48.4807373  37.0602249
  68.0141387  48.4347373  38.1562249  68.4671387  48.5997373  35.6892249
  70.0471387  49.6637373  37.3312249  70.3631387  50.0247373  38.6852249
  71.1901387  49.4127373  39.0442249  69.4931387  49.8557373  39.3192249
  70.7551387  51.4897373  38.7622249  70.9021387  51.7777373  39.8032249
  72.0561387  51.6677373  38.1492249  72.1021387  52.9137373  37.4762249
  72.9791387  53.4677373  37.8112249  72.3771387  52.6557373  36.0342249
  72.0981387  51.5337373  35.2922249  71.6151387  50.6857373  35.7542249
  72.4721387  51.6197373  34.0322249  73.0261387  52.8957373  33.9392249
  73.6001387  53.5597373  32.8292249  73.7411387  53.1637373  31.6772249
  74.0521387  54.8407373  33.1782249  74.4821387  55.3867373  32.4592249
  73.9561387  55.4077373  34.4392249  74.4441387  56.6407373  34.5752249
  74.8861387  57.2017373  33.8612249  74.3821387  57.0517373  35.4962249
  73.4161387  54.7787373  35.4852249  72.9741387  53.5327373  35.1582249
  69.8481387  52.4517373  37.9962249  69.5161387  52.0347373  37.0452249
  70.7781387  53.6237373  37.7382249  70.2061387  54.4597373  37.3362249
  71.2521387  53.9247373  38.6722249  68.6931387  52.8447373  38.7472249
  67.6511387  53.8457373  38.1192249  66.7761387  54.3847373  39.1932249
  66.9511387  53.2217373  36.9722249  68.6201387  54.9957373  37.5972249
  69.0531387  56.0197373  38.5062249  69.9551387  55.6917373  39.0232249
  68.2701387  56.2097373  39.2402249  69.3481387  57.3037373  37.7552249
  69.5841387  58.0977373  38.4632249  70.5611387  57.1357373  36.9802249
  70.4481387  57.8377373  35.7542249  71.2801387  58.5207373  35.5832249
  70.5851387  56.8567373  34.6402249  70.3011387  55.5237373  34.6562249
  69.8811387  55.0707373  35.5422249  70.5231387  54.9277373  33.5292249
  70.9801387  55.9467373  32.7082249  71.3851387  55.9677373  31.3592249
  71.3991387  54.8827373  30.5732249  71.7001387  54.9587373  29.6122249
  71.1091387  53.9887373  30.9422249  71.7871387  57.1497373  30.8562249
  71.7701387  58.2217373  31.6352249  72.0861387  59.1757373  31.2392249
  71.4101387  58.3347373  32.8962249  71.0221387  57.1337373  33.3752249
  68.3001387  57.7147373  36.7212249  67.8991387  56.8567373  36.1812249
  69.1141387  58.5757373  35.7712249  68.4461387  59.0727373  35.0682249
  69.6651387  59.3247373  36.3402249  67.2071387  58.4407373  37.2942249
  66.0371387  58.9567373  36.3732249  65.2461387  59.9787373  37.1072249
  65.2641387  57.8187373  35.8232249  66.8621387  59.6587373  35.2072249
  67.3181387  61.0107373  35.3832249  68.2901387  61.0087373  35.8762249
  66.6061387  61.5577373  36.0012249  67.4411387  61.7047373  34.0392249
  67.6961387  62.7537373  34.1892249  68.5741387  61.1547373  33.3202249
  68.2831387  61.1027373  31.9342249  69.0541387  61.5917373  31.3392249
  68.3681387  59.6817373  31.4922249  68.1521387  58.6617373  32.3852249
  67.8831387  58.8827373  33.4072249  68.2221387  57.3827373  32.0012249
  67.9981387  56.2277373  32.9312249  66.9931387  56.2867373  33.3482249
  68.1091387  55.2927373  32.3832249  68.7291387  56.2637373  33.7392249
  68.5321387  57.0287373  30.6332249  68.6161387  55.8787373  30.1892249
  68.7271387  58.1177373  29.8112249  68.9651387  57.9067373  28.7692249
  68.6581387  59.4517373  30.1772249  68.8521387  60.3447373  29.3732249
  66.2641387  61.5037373  33.0872249  65.8691387  60.4887373  33.1332249
  66.9101387  61.7347373  31.7312249  66.1381387  61.7827373  30.9632249
  67.4641387  62.6727373  31.7472249  65.1901387  62.4207373  33.3272249
  63.8951387  62.3687373  32.4292249  63.1181387  63.6217373  32.6132249
  63.1491387  61.1097373  32.6602249  64.5411387  62.3507373  30.9742249
  64.9181387  63.5917373  30.3572249  65.9351387  63.8527373  30.6502249
  64.2391387  64.3807373  30.6822249  64.8491387  63.4707373  28.8452249
  65.0451387  64.4417373  28.3892249  65.9341387  62.6277373  28.3842249
  65.5021387  61.8507373  27.2812249  66.2051387  61.9767373  26.4572249
  65.6381387  60.4097373  27.6432249  65.6151387  59.8297373  28.8882249
  65.4841387  60.4417373  29.7682249  65.7651387  58.5207373  28.8702249
  65.8831387  58.2217373  27.5122249  66.0651387  56.9757373  26.8692249
  66.1591387  55.8557373  27.3602249  66.1471387  57.1257373  25.4772249
  66.2861387  56.2987373  24.9332249  66.0591387  58.3297373  24.7962249
  66.1611387  58.2707373  23.4692249  66.3071387  57.4447373  22.9072249
  66.1061387  59.1487373  22.9732249  65.8901387  59.5057373  25.4062249
  65.8091387  59.3717373  26.7582249  63.5941387  62.7937373  28.2982249
  63.2771387  61.9557373  28.9182249  64.0751387  62.2757373  26.9542249
  63.2241387  61.9077373  26.3802249  64.5611387  63.0827373  26.4062249
  62.4911387  63.6967373  28.1562249  61.1151387  63.1737373  27.5922249
  60.2761387  64.3327373  27.1892249  60.4871387  62.2247373  28.5422249
  61.6021387  62.3917373  26.2942249  61.8231387  63.1197373  25.0752249
  62.8441387  63.4997373  25.0552249  61.1291387  63.9587373  25.0212249
  61.6031387  62.2187373  23.8752249  61.6811387  62.8017373  22.9572249
  62.6891387  61.2617373  23.7912249  62.1961387  60.0177373  23.3242249
  62.7971387  59.6927373  22.4752249  62.4701387  58.9867373  24.3652249
  62.6201387  59.1517373  25.7222249  62.5411387  60.1357373  26.1592249
  62.8581387  58.0327373  26.3732249  62.8511387  57.0607373  25.3712249
  63.0501387  55.6637373  25.4602249  63.2721387  54.9717373  26.4482249
  62.9721387  55.0557373  24.1982249  63.1081387  54.0657373  24.1562249
  62.7291387  55.7167373  23.0052249  62.6931387  54.9657373  21.9052249
  62.8351387  53.9677373  21.8462249  62.5251387  55.4487373  21.0342249
  62.5441387  57.0367373  22.9242249  62.6171387  57.6377373  24.1432249
  60.3471387  61.3517373  23.9292249  60.1571387  60.9677373  24.9312249
  60.7161387  60.2017373  23.0072249  59.8361387  59.5847373  22.8252249
  61.0831387  60.5977373  22.0602249  59.1751387  62.0397373  23.4762249
  57.7861387  61.2937373  23.4502249  56.8311387  62.0627373  22.6092249
  57.3301387  60.9887373  24.8262249  58.1851387  59.9457373  22.7042249
  58.2251387  59.9207373  21.2692249  59.2101387  60.2347373  20.9242249
  57.4731387  60.6027373  20.8722249  57.9411387  58.5197373  20.7582249
  57.8801387  58.5307373  19.6702249  59.0751387  57.6657373  21.0502249
  58.6231387  56.3617373  21.3712249  59.1511387  55.6377373  20.7502249
  59.0771387  56.0387373  22.7532249  59.3591387  56.8947373  23.7902249
  59.2591387  57.9607373  23.6522249  59.7421387  56.2897373  24.8962249
  59.6961387  54.9357373  24.5622249  59.9991387  53.7957373  25.3432249
  60.3731387  53.7327373  26.5092249  59.8311387  52.6127373  24.6092249
  60.0291387  51.7507373  25.0752249  59.4171387  52.5437373  23.2872249
  59.3161387  51.3247373  22.7612249  59.5191387  50.4467373  23.2172249
  59.0231387  51.2727373  21.7962249  59.1331387  53.6207373  22.5522249
  59.2941387  54.7757373  23.2552249  56.7611387  57.8077373  21.4172249
  56.7061387  58.0107373  22.4872249  57.1091387  56.3467373  21.1962249
  56.2601387  55.7237373  21.4782249  57.3451387  56.1837373  20.1442249
  55.5021387  58.1507373  20.8242249  54.1741387  57.4997373  21.3692249
  53.0841387  57.7057373  20.3802249  53.8891387  57.9667373  22.7452249
  54.5841387  55.9617373  21.3972249  54.4721387  55.1817373  20.1962249
  55.3901387  55.2697373  19.6152249  53.6361387  55.5487373  19.6002249
  54.2341387  53.7227373  20.5352249  54.0571387  53.1567373  19.6202249
  55.4491387  53.1557373  21.0842249  55.1251387  52.2167373  22.0962249
  55.6041387  51.2527373  21.9222249  55.7461387  52.6747373  23.3722249
  56.0041387  54.0057373  23.5822249  55.7271387  54.7367373  22.8372249
  56.5561387  54.4297373  24.7242249  56.8641387  55.8697373  25.0092249
  55.9441387  56.4527373  24.9702249  57.3081387  55.9577373  26.0012249
  57.5641387  56.2467373  24.2642249  56.9041387  53.4997373  25.7762249
  57.4151387  53.7987373  26.8612249  56.6031387  52.1877373  25.4782249
  56.8471387  51.4447373  26.2372249  56.0291387  51.7187373  24.3082249
  55.8061387  50.5347373  24.1382249  53.1821387  53.4637373  21.6132249
  53.2271387  54.2007373  22.4142249  53.6061387  52.1067373  22.1492249
  52.8371387  51.7237373  22.8202249  53.7411387  51.4137373  21.3192249
  51.8471387  53.4367373  21.0952249  50.6331387  53.1697373  22.0632249
  49.4321387  52.8177373  21.2612249  50.4651387  54.2927373  23.0142249
  51.1491387  51.8797373  22.8392249  50.9651387  50.5827373  22.2522249
  51.8081387  50.3517373  21.6012249  50.0481387  50.5767373  21.6632249
  50.8651387  49.5217373  23.3332249  50.6311387  48.5567373  22.8832249
  52.1691387  49.3347373  23.9372249  52.0211387  49.0717373  25.3232249
  52.5451387  48.1627373  25.6202249  52.7401387  50.1357373  26.0792249
  52.9261387  51.3787373  25.5262249  52.5201387  51.6047373  24.5512249
  53.5661387  52.3427373  26.1952249  53.8021387  53.7167373  25.6412249
  52.8451387  54.1887373  25.4202249  54.3421387  54.3167373  26.3742249
  54.3911387  53.6437373  24.7272249  54.0881387  52.1117373  27.5252249
  54.6891387  52.9397373  28.2162249  53.8491387  50.8387373  27.9982249
  54.2251387  50.6097373  28.9952249  53.1871387  49.8197373  27.3322249
  53.0301387  48.7247373  27.8372249  49.9561387  49.8697373  24.5102249
  50.0351387  50.9187373  24.7952249  50.5271387  49.0007373  25.6172249
  49.8631387  49.0287373  26.4812249  50.6191387  47.9737373  25.2632249
  48.5781387  49.5697373  24.2562249  47.4951387  49.8507373  25.3652249
  46.2431387  49.1247373  25.0272249  47.3511387  51.3057373  25.6002249
  48.1791387  49.1677373  26.6302249  48.0241387  47.7557373  26.8392249
  48.8071387  47.2187373  26.3042249  47.0521387  47.4367373  26.4632249
  48.1141387  47.4267373  28.3172249  47.9021387  46.3687373  28.4722249
  49.4841387  47.5907373  28.7602249  49.5031387  48.0987373  30.0832249
  50.1171387  47.4857373  30.7432249  50.2231387  49.4037373  30.0712249
  50.2621387  50.1667373  28.9292249  49.7421387  49.8417373  28.0402249
  50.9011387  51.3407373  28.9072249  50.9811387  52.2147373  27.6902249
  49.9751387  52.4957373  27.3772249  51.5531387  53.1127373  27.9242249
  51.4731387  51.6717373  26.8832249  51.5771387  51.8477373  30.0822249
  52.1891387  52.9187373  30.1542249  51.4781387  51.0177373  31.1772249
  51.9741387  51.3507373  32.0892249  50.8211387  49.7997373  31.2342249
  50.7951387  49.1357373  32.2542249  47.3121387  48.3407373  29.2422249
  47.3471387  49.3817373  28.9222249  48.0571387  48.1907373  30.5572249
  47.4881387  48.6687373  31.3542249  48.1821387  47.1327373  30.7852249
  45.9401387  47.9477373  29.3602249  44.9641387  48.7697373  30.2862249
  43.7371387  47.9717373  30.5392249  44.7461387  50.1297373  29.7382249
  45.8251387  48.8617373  31.6212249  45.7911387  47.7717373  32.5572249
  46.5481387  47.0347373  32.2892249  44.8091387  47.2997373  32.5312249
  46.0601387  48.2737373  33.9632249  45.9401387  47.4577373  34.6752249
  47.4561387  48.6507373  34.0752249  47.5801387  49.7817373  34.9212249
  48.3171387  49.5677373  35.6952249  48.2021387  50.8847373  34.1362249
  48.1761387  51.0967373  32.7782249  47.6511387  50.4077373  32.1332249
  48.8301387  52.1727373  32.3932249  49.3091387  52.7127373  33.5872249
  50.0851387  53.8737373  33.8132249  50.5181387  54.6877373  33.0032249
  50.3601387  54.0467373  35.1772249  50.9101387  54.8397373  35.4382249
  49.9351387  53.2037373  36.1922249  50.2981387  53.5347373  37.4312249
  50.8591387  54.3277373  37.7092249  49.9961387  52.9157373  38.1702249
  49.2051387  52.1077373  35.9762249  48.9311387  51.9297373  34.6552249
  45.3011387  49.5367373  34.3652249  45.2301387  50.2507373  33.5452249
  46.1901387  50.1067373  35.4562249  45.6771387  50.9327373  35.9492249
  46.4131387  49.3297373  36.1872249  43.9791387  49.2627373  34.8452249
  43.0521387  50.4467373  35.3162249  41.9171387  49.8997373  36.1052249
  42.6831387  51.3107373  34.1712249  44.0421387  51.2327373  36.2852249
  44.1841387  50.8017373  37.6472249  44.9571387  50.0357373  37.7112249
  43.2401387  50.3847373  37.9972249  44.5661387  51.9717373  38.5352249
  44.5791387  51.6557373  39.5782249  45.9351387  52.3547373  38.2552249
  46.0701387  53.7617373  38.3592249  46.8951387  53.9987373  39.0302249
  46.5271387  54.2857373  37.0402249  46.2571387  53.6077373  35.8892249
  45.7151387  52.6747373  35.9252249  46.6601387  54.0867373  34.6902249
  46.4121387  53.5457373  33.7772249  47.3961387  55.3187373  34.6962249
  47.8251387  55.8447373  33.5542249  48.3391387  56.7127373  33.6012249
  47.6361387  55.3807373  32.6772249  47.6631387  55.9837373  35.8332249
  47.2321387  55.4787373  37.0242249  47.4541387  56.0527373  38.1022249
  43.7671387  53.2537373  38.3072249  43.5601387  53.4257373  37.2512249
  44.7251387  54.3177373  38.8152249  44.2111387  55.2777373  38.8612249
  45.0761387  54.0457373  39.8102249  42.5261387  53.2717373  39.0232249
  41.5751387  54.5237373  38.9182249  40.5711387  54.4727373  40.0132249
  41.0271387  54.6507373  37.5472249  42.6061387  55.7057373  39.1962249
  42.9211387  56.0597373  40.5522249  43.7481387  55.4457373  40.9092249
  42.0501387  55.8877373  41.1852249  43.3131387  57.5227373  40.6372249
  43.4581387  57.8047373  41.6802249  44.6151387  57.7047373  40.0272249
  44.6621387  58.9537373  39.3602249  45.5391387  59.5047373  39.6992249
  44.9391387  58.7037373  37.9172249  44.6601387  57.5847373  37.1682249
  44.1761387  56.7347373  37.6262249  45.0351387  57.6767373  35.9092249
  45.5901387  58.9547373  35.8242249  46.1661387  59.6227373  34.7182249
  46.3081387  59.2327373  33.5642249  46.6181387  60.9027373  35.0732249
  47.0501387  61.4527373  34.3582249  46.5201387  61.4627373  36.3382249
  47.0091387  62.6937373  36.4812249  47.4531387  63.2577373  35.7712249
  46.9461387  63.0997373  37.4042249  45.9791387  60.8287373  37.3802249
  45.5361387  59.5847373  37.0462249  42.4081387  58.4897373  39.8752249
  42.0781387  58.0767373  38.9222249  43.3381387  59.6627373  39.6242249
  42.7671387  60.5017373  39.2262249  43.8121387  59.9577373  40.5602249
  41.2521387  58.8797373  40.6262249  40.2101387  59.8847373  40.0032249
  39.3351387  60.4177373  41.0792249  39.5121387  59.2667373  38.8512249
  41.1801387  61.0367373  39.4872249  41.6131387  62.0557373  40.4032249
  42.5141387  61.7257373  40.9202249  40.8291387  62.2417373  41.1372249
  41.9091387  63.3447373  39.6582249  42.1451387  64.1367373  40.3692249
  43.1231387  63.1777373  38.8842249  43.0121387  63.8877373  37.6612249
  43.8761387  64.5417373  37.5412249  43.1501387  62.9127373  36.5422249
  42.8301387  61.5997373  36.7192249  42.4801387  61.2517373  37.6802249
  42.9441387  60.7137373  35.7022249  42.6601387  59.6727373  35.8532249
  43.4321387  61.2197373  34.4502249  43.5701387  60.4057373  33.4102249
  43.9161387  60.8007373  32.5472249  43.3331387  59.4277373  33.4942249
  43.7491387  62.5147373  34.2812249  43.6121387  63.3827373  35.3242249
  43.8931387  64.5877373  35.2192249  40.8631387  63.7597373  38.6252249
  40.4631387  62.9047373  38.0802249  41.6781387  64.6257373  37.6802249
  41.0111387  65.1257373  36.9782249  42.2271387  65.3727373  38.2532249
  39.7691387  64.4837373  39.2002249  38.6001387  65.0047373  38.2802249
  37.8091387  66.0227373  39.0192249  37.8281387  63.8697373  37.7242249
  39.4271387  65.7137373  37.1202249  39.8831387  67.0627373  37.3022249
  40.8551387  67.0577373  37.7962249  39.1711387  67.6067373  37.9222249
  40.0081387  67.7637373  35.9632249  40.2631387  68.8117373  36.1192249
  41.1411387  67.2177373  35.2422249  40.8521387  67.1727373  33.8562249
  41.6551387  67.6657373  33.3072249  40.9371387  65.7537373  33.4072249
  40.7531387  64.6057373  34.1402249  40.5121387  64.6677373  35.1912249
  40.9011387  63.4977373  33.4442249  41.1921387  63.9537373  32.1572249
  41.4521387  63.2257373  30.9722249  41.4791387  62.0117373  30.7982249
  41.7121387  64.0827373  29.8932249  41.9161387  63.6607373  29.0102249
  41.7151387  65.4677373  29.9542249  41.9861387  66.1117373  28.8182249
  42.2001387  65.6987373  27.9212249  41.9971387  67.1207373  28.8632249
  41.4711387  66.1517373  31.0742249  41.2181387  65.3297373  32.1292249
  38.8311387  67.5677373  35.0072249  38.4341387  66.5527373  35.0462249
  39.4791387  67.8057373  33.6542249  38.7081387  67.8567373  32.8852249
  40.0321387  68.7447373  33.6762249  37.7581387  68.4847373  35.2512249
  36.4641387  68.4367373  34.3532249  35.6871387  69.6897373  34.5412249
  35.7181387  67.1777373  34.5762249  37.1121387  68.4267373  32.8972249
  37.4901387  69.6707373  32.2862249  38.5071387  69.9297373  32.5812249
  36.8111387  70.4577373  32.6142249  37.4231387  69.5577373  30.7752249
  37.6191387  70.5307373  30.3242249  38.5081387  68.7167373  30.3112249
  38.0761387  67.9447373  29.2042249  38.7751387  68.0737373  28.3772249
  38.2121387  66.5027373  29.5582249  38.1701387  66.0977373  30.8582249
  38.0461387  66.8247373  31.6472249  38.2821387  64.7887373  31.1832249
  38.2221387  64.4787373  32.2262249  38.4641387  63.8647373  30.1002249
  38.5831387  62.5657373  30.3462249  38.7101387  61.9477373  29.5572249
  38.5461387  62.2217373  31.2952249  38.5071387  64.2677373  28.8192249
  38.3811387  65.5937373  28.5262249  38.4151387  66.0167373  27.3592249
  36.1681387  68.8837373  30.2232249  35.8511387  68.0427373  30.8392249
  36.6501387  68.3717373  28.8772249  35.8001387  68.0077373  28.3002249
  37.1381387  69.1807373  28.3332249  35.0651387  69.7867373  30.0842249
  33.6891387  69.2687373  29.5172249  32.8521387  70.4297373  29.1182249
  33.0601387  68.3157373  30.4602249  34.1781387  68.4927373  28.2152249
  34.4011387  69.2267373  27.0002249  35.4231387  69.6057373  26.9842249
  33.7081387  70.0657373  26.9502249  34.1821387  68.3317373  25.7952249
  34.2621387  68.9197373  24.8812249  35.2671387  67.3757373  25.7072249
  34.7751387  66.1337373  25.2342249  35.3411387  65.7747373  24.3742249
  35.0471387  65.0977373  26.2702249  35.1641387  65.4507373  27.5922249
  35.0261387  66.4777373  27.8952249  35.4041387  64.5297373  28.5322249
  35.5461387  64.8557373  29.9902249  34.6271387  65.3167373  30.3512249
  35.7371387  63.9407373  30.5512249  36.3771387  65.5467373  30.1292249
  35.5531387  63.1317373  28.1902249  35.7741387  62.2157373  28.9882249
  35.4141387  62.8747373  26.8432249  35.5191387  61.8357373  26.5312249
  35.1621387  63.8037373  25.8462249  35.0601387  63.4747373  24.6792249
  32.9251387  67.4647373  25.8422249  32.7341387  67.0757373  26.8422249
  33.2951387  66.3197373  24.9162249  32.4151387  65.7037373  24.7292249
  33.6651387  66.7197373  23.9722249  31.7541387  68.1557373  25.3922249
  30.3651387  67.4117373  25.3612249  29.4111387  68.1847373  24.5222249
  29.9071387  67.0987373  26.7352249  30.7641387  66.0657373  24.6082249
  30.8061387  66.0477373  23.1732249  31.7911387  66.3637373  22.8302249
  30.0551387  66.7327373  22.7782249  30.5221387  64.6507373  22.6542249
  30.4631387  64.6657373  21.5662249  31.6561387  63.7947373  22.9442249
  31.2031387  62.4897373  23.2582249  31.7311387  61.7687373  22.6342249
  31.6551387  62.1577373  24.6392249  31.9361387  63.0097373  25.6802249
  31.8371387  64.0767373  25.5472249  32.3171387  62.3987373  26.7832249
  32.2711387  61.0457373  26.4422249  32.5731387  59.9017373  27.2182249
  32.9461387  59.8327373  28.3852249  32.4051387  58.7227373  26.4782249
  32.6021387  57.8577373  26.9402249  31.9931387  58.6607373  25.1562249
  31.8921387  57.4447373  24.6212249  32.0941387  56.5637373  25.0722249
  31.6001387  57.3997373  23.6552249  31.7101387  59.7427373  24.4252249
  31.8701387  60.8927373  25.1342249  29.3411387  63.9357373  23.3092249
  29.2841387  64.1327373  24.3802249  29.6891387  62.4747373  23.0812249
  28.8401387  61.8507373  23.3602249  29.9251387  62.3167373  22.0292249
  28.0831387  64.2817373  22.7162249  26.7541387  63.6287373  23.2562249
  25.6651387  63.8397373  22.2662249  26.4681387  64.0887373  24.6352249
  27.1631387  62.0907373  23.2762249  27.0531387  61.3167373  22.0712249
  27.9731387  61.4057373  21.4942249  26.2191387  61.6877373  21.4752249
  26.8131387  59.8557373  22.4042249  26.6371387  59.2947373  21.4862249
  28.0281387  59.2857373  22.9512249  27.7031387  58.3407373  23.9582249
  28.2121387  57.4007373  23.7432249  28.3211387  58.7917373  25.2362249
  28.6511387  60.0657373  25.6322249  28.4631387  60.9017373  24.9742249
  29.1901387  60.1307373  26.8322249  29.2011387  58.8017373  27.2602249
  29.6631387  58.2417373  28.4742249  30.1621387  58.8007373  29.4462249
  29.4991387  56.8497373  28.4892249  29.8051387  56.3607373  29.3062249
  28.9541387  56.0967373  27.4622249  28.8811387  54.7817373  27.6622249
  29.1911387  54.2727373  28.4782249  28.4921387  54.2317373  26.9102249
  28.5211387  56.6277373  26.3152249  28.6751387  57.9797373  26.2892249
  25.7611387  59.5917373  23.4782249  25.8061387  60.3247373  24.2842249
  26.1831387  58.2317373  24.0072249  25.4121387  57.8457373  24.6742249
  26.3191387  57.5427373  23.1732249  24.4261387  59.5677373  22.9582249
  23.2101387  59.2957373  23.9242249  22.0111387  58.9487373  23.1192249
  23.0411387  60.4147373  24.8812249  23.7261387  58.0017373  24.6952249
  23.5411387  56.7077373  24.0992249  24.3851387  56.4797373  23.4482249
  22.6241387  56.7067373  23.5102249  23.4401387  55.6417373  25.1762249
  23.2071387  54.6797373  24.7212249  24.7431387  55.4507373  25.7812249
  24.5931387  55.1807373  27.1652249  25.1051387  54.2687373  27.4712249
  25.3121387  56.2407373  27.9272249  25.5791387  57.5207373  27.5372249
  25.2151387  57.8857373  26.5882249  26.2241387  58.2117373  28.4212249
  26.3871387  57.3247373  29.4732249  26.9951387  57.4527373  30.7372249
  27.5821387  58.5787373  31.1652249  28.0021387  58.6117373  32.0832249
  27.6041387  59.3947373  30.5702249  26.9841387  56.3707373  31.5382249
  26.4001387  55.2587373  31.1132249  26.3821387  54.3867373  31.7502249
  25.7961387  55.0147373  29.9702249  25.8321387  56.1137373  29.1842249
  22.5291387  55.9837373  26.3532249  22.6071387  57.0317373  26.6422249
  23.0991387  55.1097373  27.4572249  22.4341387  55.1337373  28.3202249
  23.1921387  54.0847373  27.0982249  21.1521387  55.6857373  26.0962249
  20.0671387  55.9607373  27.2072249  18.8161387  55.2377373  26.8622249
  19.9241387  57.4157373  27.4482249  20.7501387  55.2717373  28.4682249
  20.5941387  53.8577373  28.6682249  21.3771387  53.3227373  28.1322249
  19.6221387  53.5417373  28.2892249  20.6821387  53.5217373  30.1462249
  20.4691387  52.4637373  30.2962249  22.0521387  53.6837373  30.5912249
  22.0701387  54.1837373  31.9162249  22.6821387  53.5677373  32.5742249
  22.7901387  55.4897373  31.9132249  22.8311387  56.2577373  30.7752249
  22.3151387  55.9367373  29.8832249  23.4701387  57.4327373  30.7602249
  23.5521387  58.3117373  29.5472249  22.5471387  58.5937373  29.2332249
  24.1231387  59.2087373  29.7862249  24.0461387  57.7717373  28.7392249
  24.1451387  57.9327373  31.9372249  24.7571387  59.0027373  32.0142249
  24.0441387  57.0967373  33.0292249  24.5371387  57.4257373  33.9442249
  23.3871387  55.8787373  33.0782249  23.3601387  55.2097373  34.0952249
  19.8801387  54.4317373  31.0742249  19.9161387  55.4747373  30.7582249
  20.6231387  54.2757373  32.3902249  20.0531387  54.7517373  33.1882249
  20.7471387  53.2167373  32.6152249  18.5081387  54.0387373  31.1902249
  17.5311387  54.8577373  32.1182249  16.3031387  54.0577373  32.3662249
  17.3141387  56.2197373  31.5772249  18.3901387  54.9407373  33.4552249
  18.3551387  53.8457373  34.3852249  19.1121387  53.1097373  34.1142249
  17.3731387  53.3747373  34.3552249  18.6231387  54.3407373  35.7942249
  18.5021387  53.5217373  36.5032249  20.0181387  54.7167373  35.9092249
  20.1411387  55.8427373  36.7622249  20.8741387  55.6307373  37.5402249
  20.7651387  56.9507373  35.9822249  20.6431387  57.0037373  34.6272249
  20.0981387  56.2337373  34.1022249  21.1981387  58.0137373  33.9182249
  21.0681387  58.0547373  32.8372249  21.9301387  59.0027373  34.6582249
  22.5021387  60.0197373  34.0272249  23.0081387  60.6937373  34.5842249
  22.4261387  60.1037373  33.0232249  22.0501387  58.9457373  35.9962249
  21.4691387  57.9187373  36.6802249  21.5521387  57.8217373  37.9152249
  17.8631387  55.6027373  36.2002249  17.7921387  56.3217373  35.3842249
  18.7511387  56.1667373  37.2962249  18.2391387  56.9917373  37.7912249
  18.9701387  55.3867373  38.0252249  16.5411387  55.3257373  36.6782249
  15.6141387  56.5087373  37.1552249  14.4781387  55.9577373  37.9392249
  15.2461387  57.3787373  36.0132249  16.6031387  57.2887373  38.1292249
  16.7431387  56.8497373  39.4892249  17.5171387  56.0847373  39.5492249
  15.7981387  56.4307373  39.8352249  17.1241387  58.0167373  40.3822249
  17.1351387  57.6947373  41.4232249  18.4941387  58.3997373  40.1062249
  18.6291387  59.8077373  40.2172249  19.4541387  60.0407373  40.8912249
  19.0881387  60.3377373  38.9022249  18.8191387  59.6657373  37.7482249
  18.2761387  58.7327373  37.7792249  19.2241387  60.1497373  36.5512249
  18.9771387  59.6127373  35.6352249  19.9601387  61.3817373  36.5632249
  20.3901387  61.9137373  35.4262249  20.9041387  62.7817373  35.4792249
  20.2021387  61.4547373  34.5462249  20.2251387  62.0407373  37.7052249
  19.7931387  61.5297373  38.8932249  20.0141387  62.0997373  39.9732249
  16.3261387  59.2997373  40.1612249  16.1201387  59.4777373  39.1062249
  17.2841387  60.3607373  40.6752249  16.7701387  61.3207373  40.7272249
  17.6351387  60.0827373  41.6692249  15.0851387  59.3147373  40.8762249
  14.1341387  60.5667373  40.7752249  13.1291387  60.5117373  41.8682249
  13.5881387  60.7007373  39.4052249  15.1651387  61.7467373  41.0612249
  15.4791387  62.0947373  42.4192249  16.3051387  61.4787373  42.7742249
  14.6081387  61.9197373  43.0502249  15.8711387  63.5577373  42.5122249
  16.0161387  63.8347373  43.5562249  17.1741387  63.7407373  41.9032249
  17.2221387  64.9947373  41.2432249  18.0711387  65.6017373  41.5572249
  17.5001387  64.7507373  39.8002249  17.2131387  63.6367373  39.0662249
  16.6811387  62.8127373  39.5182249  17.5781387  63.7187373  37.8282249
  18.1391387  64.9827373  37.7362249  18.7151387  65.6907373  36.6632249
  18.8281387  65.1927373  35.4242249  19.2511387  65.7477373  34.6932249
  18.4901387  64.2627373  35.2212249  19.1821387  66.9277373  36.9202249
  19.0671387  67.4177373  38.1472249  19.4351387  68.4097373  38.3632249
  18.5461387  66.8677373  39.2232249  18.0971387  65.6257373  38.9372249
  14.9671387  64.5287373  41.7542249  14.6381387  64.1217373  40.7982249
  15.8981387  65.7027373  41.5102249  15.3271387  66.5437373  41.1162249
  16.3711387  65.9927373  42.4482249  13.8101387  64.9147373  42.5062249
  23.3591387  71.2217373  28.9482249  24.7571387  71.3637373  28.4832249
  22.6311387  69.9997373  28.5402249  23.4201387  71.3907373  30.5382249
  23.6051387  72.7027373  31.0922249  22.7881387  73.3517373  30.7772249
  24.5511387  73.1097373  30.7342249  23.6331387  72.6357373  32.6082249
  23.8671387  73.6187373  33.0152249  22.2991387  72.3487373  33.0972249
  22.3771387  71.5147373  34.2402249  21.8231387  71.9287373  35.0822249
  21.6451387  70.2497373  33.9462249  21.5101387  69.8087373  32.6532249
  21.9641387  70.3587373  31.8422249  20.8591387  68.6737373  32.3752249
  20.6771387  68.1447373  30.9822249  21.6531387  67.9647373  30.5312249
  20.1161387  67.2107373  31.0182249  20.1301387  68.8737373  30.3842249
  20.2711387  67.8727373  33.4262249  19.6561387  66.8137373  33.2652249
  20.4631387  68.3917373  34.6892249  20.0391387  67.8267373  35.5192249
  21.1341387  69.5607373  35.0092249  21.2451387  69.9357373  36.1612249
  24.4941387  71.5207373  33.2002249  24.4241387  70.5987373  32.6242249
  23.8541387  71.3167373  34.5612249  24.4781387  70.6537373  35.1612249
  23.7571387  72.2777373  35.0652249  25.8751387  71.8827373  33.3102249
  26.9111387  70.8587373  33.9122249  28.1621387  71.5767373  34.2692249
  27.0731387  69.6907373  33.0162249  26.1541387  70.4157373  35.2412249
  26.2711387  71.2267373  36.4212249  25.5031387  72.0007373  36.4122249
  27.2531387  71.6987373  36.4422249  26.1051387  70.3737373  37.6652249
  26.2881387  70.9787373  38.5532249  24.7191387  69.9657373  37.7832249
  24.6491387  68.6537373  38.3132249  23.9761387  68.6507373  39.1712249
  23.9571387  67.7847373  37.3192249  23.8761387  67.9337373  35.9562249
  24.3551387  68.7727373  35.4742249  23.1841387  66.9877373  35.3562249
  22.7931387  66.1507373  36.4022249  22.0251387  64.9627373  36.3772249
  21.5231387  64.3837373  35.4212249  21.8531387  64.4397373  37.6682249
  21.3151387  63.6017373  37.7562249  22.3641387  64.9947373  38.8312249
  22.0931387  64.3497373  39.9652249  21.5461387  63.5067373  40.0692249
  22.4571387  64.7577373  40.8142249  23.0871387  66.1167373  38.8512249
  23.2601387  66.6347373  37.6042249  26.8811387  69.0577373  37.6662249
  26.8821387  68.5817373  36.6852249  26.0731387  68.2147373  38.6372249
  26.6141387  67.2947373  38.8582249  25.9151387  68.7737373  39.5602249
  28.2381387  69.2117373  38.0972249  29.1861387  67.9547373  38.1742249
  30.3841387  68.2897373  38.9862249  29.4581387  67.4207373  36.8182249
  28.2661387  66.9347373  38.9782249  28.2341387  66.9957373  40.4132249
  27.4761387  67.7107373  40.7332249  29.2071387  67.3177373  40.7852249
  27.9101387  65.6317373  40.9932249  27.9801387  65.6667373  42.0802249
  26.5191387  65.3197373  40.7292249  26.3781387  63.9327373  40.4742249
  25.6011387  63.5277373  41.1232249  25.8161387  63.7647373  39.1042249
  25.9091387  64.6107373  38.0252249  26.4491387  65.5417373  38.1132249
  25.2961387  64.1707373  36.9462249  24.7731387  62.9387373  37.3442249
  24.0111387  61.9967373  36.6142249  23.6331387  62.0407373  35.4482249
  23.6761387  60.8877373  37.4062249  23.1301387  60.1667373  36.9802249
  24.0361387  60.7147373  38.7322249  23.6221387  59.5917373  39.3182249
  23.0651387  58.8587373  38.9022249  23.8771387  59.4687373  40.2882249
  24.7531387  61.6067373  39.4202249  25.0851387  62.6877373  38.6612249
  28.6761387  64.4607373  40.3802249  28.8001387  64.5697373  39.3032249
  27.7481387  63.2917373  40.6672249  28.2541387  62.3577373  40.4242249
  27.4761387  63.2937373  41.7232249  29.9671387  64.2707373  40.9692249
  30.8951387  63.0977373  40.4702249  31.9801387  62.8727373  41.4592249
  31.3341387  63.3357373  39.0752249  29.8771387  61.8747373  40.5102249
  29.6631387  61.1777373  41.7482249  28.8721387  61.6697373  42.3152249
  30.5811387  61.1887373  42.3352249  29.2641387  59.7377373  41.4812249
  29.1961387  59.1927373  42.4232249  27.9171387  59.7077373  40.9462249
  27.8061387  58.6737373  39.9832249  26.9771387  57.9957373  40.1882249
  27.4221387  59.2877373  38.6802249  27.6641387  60.5587373  38.2482249
  28.2361387  61.2397373  38.8602249  27.2061387  60.8027373  37.0632249
  26.6261387  59.6017373  36.6832249  25.9631387  59.1977373  35.5092249
  25.7621387  60.0037373  34.4572249  25.2791387  59.6577373  33.6402249
  26.0941387  60.9577373  34.4812249  25.5051387  57.9317373  35.4642249
  25.7081387  57.1357373  36.5062249  25.3471387  56.1177373  36.4792249
  26.3141387  57.3867373  37.6462249  26.7521387  58.6647373  37.6652249
  30.0981387  59.0107373  40.4262249  30.3581387  59.6597373  39.5902249
  29.1391387  57.9337373  39.9522249  29.6691387  57.2327373  39.3072249
  28.7361387  57.4007373  40.8132249  31.3041387  58.4517373  40.9592249
  32.2841387  57.6537373  40.0192249  33.2351387  56.8697373  40.8492249
  32.8981387  58.5557373  39.0162249  31.2661387  56.6647373  39.2982249
  30.8951387  55.4387373  39.9482249  30.0401387  55.6147373  40.6002249
  31.7321387  55.0757373  40.5452249  30.5291387  54.3857373  38.9202249
  30.3411387  53.4347373  39.4192249  29.2611387  54.7337373  38.3112249
  29.2711387  54.3667373  36.9412249  28.4121387  53.7487373  36.6812249
  29.0571387  55.5977373  36.1282249  29.4151387  56.8287373  36.6202249
  29.8861387  56.9107373  37.5882249  29.2321387  57.9397373  35.8982249
  29.6001387  59.3107373  36.3862249  30.6691387  59.3477373  36.5962249
  29.3551387  60.0467373  35.6212249  29.0431387  59.5347373  37.2962249
  28.6471387  57.8857373  34.5762249  28.4421387  58.8557373  33.8412249
  28.3261387  56.6087373  34.1662249  27.8791387  56.5117373  33.1762249
  28.5061387  55.4397373  34.8872249  28.1831387  54.3567373  34.4352249
  31.4891387  54.2617373  37.7372249  31.8551387  55.2327373  37.4032249
  30.5951387  53.6627373  36.6662249  31.2011387  53.3677373  35.8092249
  30.0831387  52.7877373  37.0672249  32.6161387  53.4247373  38.0192249
  33.7051387  53.1727373  36.9092249  34.5411387  52.0047373  37.2952249
  34.4441387  54.4197373  36.6072249  32.7841387  52.7807373  35.6702249
  32.3301387  51.4247373  35.5322249  31.3991387  51.2917373  36.0832249
  33.0831387  50.7467373  35.9332249  32.0951387  51.0947373  34.0692249
  31.8431387  50.0397373  33.9662249  30.9161387  51.7967373  33.6052249
  31.0981387  52.2027373  32.2592249  30.2541387  51.8617373  31.6592249
  30.9931387  53.6897373  32.2022249  31.2781387  54.4507373  33.2952249
  31.5761387  53.9797373  34.2202249  31.1941387  55.8007373  33.2432249
  31.4521387  56.3967373  34.1182249  30.7741387  56.3777373  31.9972249
  30.6681387  57.6957373  31.8762249  30.3701387  58.0627373  30.9842249
  30.8821387  58.2977373  32.6582249  30.4921387  55.6237373  30.9212249
  30.5971387  54.2657373  31.0052249  30.3471387  53.5257373  30.0412249
  33.1971387  51.5437373  33.1102249  33.6051387  52.5177373  33.3812249
  32.4451387  51.6577373  31.7962249  33.1541387  51.8147373  30.9832249
  31.8851387  50.7397373  31.6162249  34.2771387  50.6067373  33.0252249
  35.4981387  50.8977373  32.0722249  36.2741387  49.6477373  31.8692249
  36.2721387  52.0647373  32.5572249  34.7401387  51.2787373  30.7242249
  34.3041387  50.2317373  29.8422249  33.3101387  49.8947373  30.1372249
  34.9981387  49.3937373  29.9012249  34.2561387  50.7337373  28.4122249
  34.0151387  49.9087373  27.7412249  33.1471387  51.6557373  28.2662249
  33.5001387  52.6927373  27.3672249  32.7381387  52.7747373  26.5922249
  33.4061387  53.9917373  28.0922249  33.5521387  54.0457373  29.4452249
  33.7291387  53.1407373  30.0072249  33.4791387  55.2247373  30.1062249
  33.6241387  55.2537373  31.1862249  33.2231387  56.3967373  29.3182249
  33.1371387  57.5857373  29.9012249  32.9561387  58.3857373  29.3122249
  33.2511387  57.6717373  30.9012249  33.0781387  56.3397373  27.9832249
  33.1681387  55.1357373  27.3482249  33.0401387  55.0297373  26.1182249
  35.4721387  51.5407373  27.9582249  35.8451387  52.1967373  28.7452249
  34.8931387  52.3797373  26.8322249  35.7001387  52.8897373  26.3062249
  34.3571387  51.7347373  26.1362249  36.5511387  50.7157373  27.5052249
  37.8841387  51.3777373  26.9882249  38.6761387  50.3687373  26.2382249
  38.5941387  52.0607373  28.0952249  37.3051387  52.4587373  25.9732249
  36.9821387  52.0627373  24.6312249  35.9591387  51.6897373  24.5942249
  37.6611387  51.2717373  24.3122249  37.1171387  53.2417373  23.6852249
  36.9621387  52.9107373  22.6582249  36.0371387  54.1777373  23.9322249
  36.5051387  55.5057373  23.7612249  35.8911387  56.0787373  23.0662249
  36.3231387  56.2347373  25.0482249  36.2841387  55.7137373  26.3102249
  36.4401387  54.6567373  26.4662249  36.1131387  56.6007373  27.2352249
  36.0421387  57.7947373  26.5332249  35.8741387  59.1307373  26.9482249
  35.7351387  59.4957373  28.2292249  35.6181387  60.4707373  28.4672249
  35.7481387  58.7967373  28.9582249  35.8431387  60.0737373  25.9872249
  35.9831387  59.7087373  24.7202249  35.9631387  60.4587373  23.9432249
  36.1541387  58.5087373  24.2082249  36.1711387  57.5837373  25.1932249
  38.3821387  54.0807373  23.8602249  38.6541387  54.1997373  24.9092249
  37.9531387  55.4227373  23.2932249  38.8221387  56.0757373  23.2062249
  37.5091387  55.2767373  22.3082249  39.5081387  53.5417373  23.1572249
  40.8981387  54.2827373  23.2132249  41.7761387  53.7637373  22.1322249
  41.4631387  54.2327373  24.5822249  40.4551387  55.7727373  22.8692249
  40.3041387  56.1637373  21.4942249  39.2921387  55.9377373  21.1592249
  41.0161387  55.6127373  20.8792249  40.5611387  57.6497373  21.3362249
  40.5361387  57.9167373  20.2792249  39.4621387  58.3897373  21.9232249
  39.9511387  59.5737373  22.5302249  39.3831387  60.4257373  22.1572249
  39.6091387  59.5297373  23.9812249  39.4011387  58.4347373  24.7842249
  39.4791387  57.4387373  24.3732249  39.1121387  58.7357373  26.0322249
  39.1451387  60.1307373  26.0522249  38.9151387  61.0307373  27.1192249
  38.6341387  60.7907373  28.2882249  39.0381387  62.3627373  26.6982249
  38.8851387  63.0757373  27.3822249  39.3481387  62.7697373  25.4102249
  39.4201387  64.0837373  25.2042249  39.2621387  64.8147373  25.8832249
  39.6371387  64.3817373  24.2642249  39.5621387  61.9187373  24.4052249
  39.4461387  60.6217373  24.8012249  41.7971387  58.1817373  22.0602249
  41.9341387  57.7147373  23.0352249  41.4471387  59.6487373  22.2462249
  42.3221387  60.1887373  22.6092249  41.1301387  60.0707373  21.2922249
  43.0011387  58.0147373  21.3042249  44.3751387  58.5177373  21.8902249
  45.3821387  58.5827373  20.8002249  44.7611387  57.7197373  23.0762249
  43.9841387  59.9937373  22.3402249  44.0091387  61.0557373  21.3722249
  43.0471387  61.1097373  20.8622249  44.7921387  60.8607373  20.6392249
  44.2881387  62.3837373  22.0532249  44.3991387  63.1667373  21.3032249
  43.1251387  62.7797373  22.8212249  43.5361387  63.4337373  24.0102249
  43.0271387  64.3947373  24.0892249  43.0131387  62.6607373  25.1722249
  42.7511387  61.3277373  25.0622249  42.9131387  60.8197373  24.1232249
  42.2871387  60.6207373  26.1192249  42.1081387  59.5497373  26.0222249
  42.0691387  61.3437373  27.3392249  41.6131387  60.7137373  28.4152249
  41.4731387  61.2587373  29.2542249  41.4171387  59.7237373  28.3802249
  42.3271387  62.6587373  27.4442249  42.8041387  63.3377373  26.3622249
  43.0561387  64.5537373  26.4072249  45.4231387  62.3687373  23.0762249
  45.4341387  61.4517373  23.6662249  45.0561387  63.5417373  23.9702249
  45.8781387  63.7477373  24.6562249  44.8661387  64.4217373  23.3562249
  46.7141387  62.5407373  22.4782249  48.0031387  62.5657373  23.3842249
  49.1411387  63.1217373  22.6072249  48.2331387  61.2387373  24.0032249
  47.5621387  63.6097373  24.5022249  47.7131387  65.0157373  24.2512249
  46.8251387  65.3957373  23.7472249  48.5821387  65.1807373  23.6142249
  47.9071387  65.7677373  25.5552249  48.1141387  66.8177373  25.3482249
  46.6571387  65.7817373  26.2882249  46.9151387  65.6847373  27.6782249
  46.3991387  66.4937373  28.1952249  46.2471387  64.4557373  28.1922249
  45.9241387  63.3037373  27.5172249  46.1571387  63.2087373  26.4672249
  45.3321387  62.3947373  28.2642249  45.2731387  62.9897373  29.5232249
  44.7441387  62.4957373  30.7392249  44.2121387  61.4147373  30.9702249
  44.8791387  63.4327373  31.7732249  44.5261387  63.1767373  32.6732249
  45.4561387  64.6857373  31.6472249  45.4931387  65.4367373  32.7482249
  45.1351387  65.1947373  33.6612249  45.9061387  66.3537373  32.6552249
  45.9531387  65.1517373  30.4992249  45.8271387  64.2487373  29.4872249
  48.9021387  65.1407373  26.5302249  48.8351387  64.0527373  26.5432249
  48.4281387  65.6927373  27.8632249  49.1571387  65.4517373  28.6372249
  48.3201387  66.7747373  27.7912249  50.2591387  65.5097373  26.2542249
  51.4221387  64.9657373  27.1682249  52.6511387  65.7677373  26.9282249
  51.5691387  63.5007373  27.0122249  50.8461387  65.2987373  28.6142249
  51.0311387  66.6127373  29.1622249  50.2141387  67.2607373  28.8442249
  51.9741387  67.0267373  28.8052249  51.0601387  66.5537373  30.6782249
  51.2951387  67.5387373  31.0812249  49.7271387  66.2687373  31.1702249
  49.8071387  65.4397373  32.3172249  49.2361387  65.8887373  33.1302249
  49.0751387  64.1737373  32.0302249  48.9291387  63.7277373  30.7502249
  49.3371387  64.2967373  29.9282249  48.2751387  62.5727373  30.4882249
  48.1881387  62.2187373  29.4612249  47.7331387  61.8617373  31.6112249
  47.0771387  60.7227373  31.4252249  46.7111387  60.2527373  32.2412249
  46.9561387  60.3507373  30.4942249  47.8761387  62.3067373  32.8712249
  48.5511387  63.4697373  33.1022249  48.7091387  63.9227373  34.2472249
  51.9221387  65.4417373  31.2742249  51.8511387  64.5167373  30.7032249
  51.2841387  65.2447373  32.6382249  51.9091387  64.5857373  33.2402249
  51.1881387  66.2087373  33.1372249  53.3041387  65.8047373  31.3822249
  54.3401387  64.7847373  31.9882249  55.5921387  65.5047373  32.3392249
  54.5021387  63.6117373  31.0972249  53.5851387  64.3477373  33.3202249
  53.7031387  65.1647373  34.4952249  52.9351387  65.9377373  34.4832249
  54.6851387  65.6377373  34.5122249  53.5401387  64.3187373  35.7442249
  53.7241387  64.9287373  36.6282249  52.1541387  63.9107373  35.8662249
  52.0851387  62.6017373  36.4032249  51.4131387  62.6037373  37.2612249
  51.3921387  61.7277373  35.4142249  51.3091387  61.8687373  34.0492249
  51.7871387  62.7057373  33.5612249  50.6171387  60.9187373  33.4552249
  50.2271387  60.0877373  34.5062249  49.4601387  58.8997373  34.4892249
  48.9561387  58.3147373  33.5362249  49.2901387  58.3827373  35.7822249
  48.7541387  57.5437373  35.8742249  49.8011387  58.9437373  36.9412249
  49.5321387  58.3037373  38.0792249  48.9861387  57.4607373  38.1882249
  49.8971387  58.7167373  38.9262249  50.5241387  60.0667373  36.9542249
  50.6951387  60.5777373  35.7042249  54.3161387  63.0027373  35.7512249
  54.3151387  62.5217373  34.7732249  53.5091387  62.1647373  36.7272249
  54.0511387  61.2457373  36.9522249  53.3521387  62.7277373  37.6472249
  55.6731387  63.1577373  36.1802249  56.6221387  61.9027373  36.2612249
  57.8201387  62.2427373  37.0712249  56.8921387  61.3627373  34.9092249
  55.7031387  60.8867373  37.0722249  55.6721387  60.9547373  38.5062249
  54.9141387  61.6707373  38.8232249  56.6451387  61.2787373  38.8762249
  55.3491387  59.5937373  39.0942249  55.4211387  59.6337373  40.1812249
  53.9581387  59.2807373  38.8332249  53.8181387  57.8917373  38.5862249
  53.0451387  57.4837373  39.2372249  53.2541387  57.7167373  37.2172249
  53.4411387  58.6677373  36.2592249  53.9961387  59.5657373  36.4872249
  52.9391387  58.5057373  35.0132249  53.1181387  59.2657373  34.2522249
  52.1941387  57.3047373  34.7622249  51.6721387  57.0827373  33.5622249
  51.1551387  56.2257373  33.4262249  51.7961387  57.7567373  32.8202249
  52.0111387  56.3707373  35.7102249  52.5381387  56.5597373  36.9532249
  52.3951387  55.7267373  37.8632249  56.1151387  58.4197373  38.4862249
  56.2381387  58.5247373  37.4082249  55.1881387  57.2527373  38.7792249
  55.6941387  56.3177373  38.5402249  54.9171387  57.2597373  39.8352249
  57.4071387  58.2327373  39.0742249  58.3341387  57.0587373  38.5802249
  59.4211387  56.8397373  39.5692249  58.7731387  57.2897373  37.1842249
  57.3171387  55.8347373  38.6282249  57.1051387  55.1437373  39.8702249
  56.3151387  55.6377373  40.4352249  58.0241387  55.1577373  40.4562249
  56.7061387  53.7027373  39.6102249  56.6391387  53.1627373  40.5542249
  55.3591387  53.6707373  39.0772249  55.2471387  52.6297373  38.1202249
  54.4181387  51.9537373  38.3302249  54.8611387  53.2377373  36.8142249
  55.1021387  54.5067373  36.3752249  55.6751387  55.1917373  36.9832249
  54.6431387  54.7447373  35.1892249  54.0631387  53.5417373  34.8162249
  53.3991387  53.1307373  33.6452249  53.1961387  53.9327373  32.5892249
  52.7121387  53.5827373  31.7742249  53.5271387  54.8867373  32.6092249
  52.9411387  51.8647373  33.6072249  53.1451387  51.0757373  34.6522249
  52.7841387  50.0577373  34.6312249  53.7531387  51.3327373  35.7912249
  54.1911387  52.6097373  35.8032249  57.5391387  52.9717373  38.5592249
  57.7981387  53.6167373  37.7192249  56.5801387  51.8907373  38.0902249
  57.1101387  51.1877373  37.4482249  56.1781387  51.3607373  38.9542249
  58.7461387  52.4147373  39.0942249  59.7251387  51.6117373  38.1552249
  60.6771387  50.8327373  38.9892249  60.3381387  52.5097373  37.1482249
  58.7071387  50.6197373  37.4402249  58.3371387  49.3977373  38.0982249
  57.4831387  49.5767373  38.7512249  59.1741387  49.0397373  38.6972249
  57.9711387  48.3377373  37.0762249  57.7831387  47.3897373  37.5802249
  56.7021387  48.6827373  36.4662249  56.7101387  48.3087373  35.0982249
  55.8591387  47.6827373  34.8312249  56.4941387  49.5357373  34.2792249
  56.7931387  50.8257373  34.6052249  57.2871387  51.0487373  35.5392249
  56.4881387  51.6807373  33.6842249  55.9571387  50.8957373  32.6722249
  55.4461387  51.2077373  31.3972249  55.3821387  52.4547373  30.9112249
  55.0051387  52.6187373  29.9882249  55.7111387  53.2307373  31.4672249
  54.9931387  50.1837373  30.6492249  55.0611387  48.9517373  31.1322249
  54.7041387  48.1247373  30.5362249  55.5191387  48.5297373  32.2922249
  55.9561387  49.5787373  33.0242249  58.9291387  48.2087373  35.8922249
  59.2951387  49.1777373  35.5532249  58.0341387  47.6047373  34.8252249
  58.6391387  47.3077373  33.9682249  57.5241387  46.7307373  35.2302249
  60.0561387  47.3727373  36.1782249  61.1451387  47.1157373  35.0672249
  61.9811387  45.9507373  35.4582249  61.8831387  48.3627373  34.7582249
  60.2221387  46.7177373  33.8312249  59.7691387  45.3607373  33.7002249
  58.8391387  45.2297373  34.2542249  60.5231387  44.6847373  34.1032249
  59.5321387  45.0227373  32.2392249  59.2801387  43.9667373  32.1402249
  58.3521387  45.7227373  31.7742249  58.5331387  46.1217373  30.4252249
  57.7221387  45.7887373  29.7772249  58.4261387  47.6077373  30.3602249
  58.6841387  48.5107373  31.3492249  59.0541387  48.1757373  32.3062249
  58.5021387  49.7407373  30.9932249  58.1011387  49.6407373  29.6692249
  57.7571387  50.6097373  28.7052249  57.7581387  51.9267373  28.9482249
  57.5021387  52.5757373  28.2172249  58.0151387  52.2717373  29.8622249
  57.4011387  50.1637373  27.4852249  57.4031387  48.8597373  27.2492249
  57.1221387  48.4937373  26.2732249  57.7091387  47.8637373  28.0522249
  58.0521387  48.3387373  29.2702249  60.6331387  45.4677373  31.2782249
  61.0421387  46.4427373  31.5432249  59.8781387  45.5747373  29.9632249
  60.5861387  45.7297373  29.1492249  59.3191387  44.6557373  29.7882249
  61.7121387  44.5297373  31.1962249  62.9321387  44.8177373  30.2402249
  63.7091387  43.5667373  30.0422249  63.7071387  45.9867373  30.7182249
  62.1731387  45.1907373  28.8912249  61.7371387  44.1397373  28.0152249
  60.7441387  43.8027373  28.3132249  62.4321387  43.3017373  28.0782249
  61.6871387  44.6347373  26.5812249  61.4461387  43.8067373  25.9142249
  60.5771387  45.5547373  26.4332249  60.9291387  46.5877373  25.5282249
  60.1651387  46.6647373  24.7542249  60.8351387  47.8897373  26.2472249
  60.9831387  47.9517373  27.6002249  61.1611387  47.0497373  28.1672249
  60.9101387  49.1337373  28.2542249  61.0561387  49.1687373  29.3342249
  60.6531387  50.3007373  27.4602249  60.5671387  51.4937373  28.0372249
  60.3851387  52.2907373  27.4432249  60.6821387  51.5857373  29.0362249
  60.5061387  50.2377373  26.1262249  60.5961387  49.0297373  25.4972249
  60.4661387  48.9177373  24.2672249  62.9011387  45.4397373  26.1232249
  63.2751387  46.1007373  26.9052249  62.3211387  46.2717373  24.9922249
  63.1281387  46.7797373  24.4632249  61.7861387  45.6217373  24.3002249
  63.9801387  44.6117373  25.6732249  65.3131387  45.2717373  25.1502249
  66.1051387  44.2587373  24.4052249  66.0231387  45.9607373  26.2532249
  64.7321387  46.3477373  24.1312249  64.4071387  45.9457373  22.7902249
  63.3831387  45.5737373  22.7582249  65.0851387  45.1537373  22.4732249
  64.5411387  47.1197373  21.8402249  64.3841387  46.7827373  20.8152249
  63.4621387  48.0557373  22.0832249  63.9281387  49.3817373  21.9042249
  63.2701387  49.9067373  21.2122249  63.7481387  50.1177373  23.1882249
  63.7221387  49.4497373  24.3752249  63.8221387  48.3747373  24.3952249
  63.5711387  50.1167373  25.5442249  63.5821387  49.5707373  26.4872249
  63.4191387  51.5417373  25.4652249  63.2641387  52.2577373  26.5722249
  63.1601387  53.2577373  26.4742249  63.2521387  51.8037373  27.4742249
  63.4431387  52.1967373  24.2922249  63.6091387  51.4947373  23.1342249
  63.6361387  52.0527373  22.0242249  65.8071387  47.9597373  22.0082249
  66.0811387  48.0837373  23.0562249  65.3761387  49.2987373  21.4352249
  66.2441387  49.9517373  21.3442249  64.9311387  49.1477373  20.4522249
  66.9321387  47.4167373  21.3072249  68.3211387  48.1587373  21.3582249
  69.1991387  47.6347373  20.2792249  68.8881387  48.1167373  22.7262249
  67.8781387  49.6467373  21.0062249  67.7251387  50.0307373  19.6292249
  66.7131387  49.8027373  19.2962249  68.4361387  49.4777373  19.0162249
  67.9811387  51.5157373  19.4642249  67.9551387  51.7767373  18.4062249
  66.8821387  52.2587373  20.0492249  67.3721387  53.4457373  20.6492249
  66.8091387  54.3007373  20.2742249  67.0321387  53.4097373  22.0992249
  66.8541387  52.2227373  22.7442249  66.9501387  51.2927373  22.2032249
  66.5561387  52.1867373  24.0632249  66.4411387  51.2277373  24.5692249
  66.4201387  53.4487373  24.7342249  66.1271387  53.4867373  26.0292249
  66.0401387  54.3937373  26.4642249  65.9991387  52.6297373  26.5472249
  66.5941387  54.6167373  24.0942249  66.9041387  54.6177373  22.7672249
  67.0731387  55.6697373  22.1302249  69.2171387  52.0527373  20.1842249
  69.3551387  51.5907373  21.1612249  68.8671387  53.5197373  20.3632249
  69.7421387  54.0617373  20.7232249  68.5501387  53.9377373  19.4082249
  70.4211387  51.8827373  19.4262249  71.7951387  52.3887373  20.0092249
  72.8011387  52.4477373  18.9172249  72.1831387  51.5957373  21.1982249
  71.4041387  53.8667373  20.4532249  71.4281387  54.9237373  19.4792249
  70.4651387  54.9747373  18.9702249  72.2101387  54.7247373  18.7462249
  71.7081387  56.2547373  20.1522249  71.8181387  57.0337373  19.3972249
  70.5451387  56.6537373  20.9192249  70.9571387  57.3137373  22.1042249
  70.4901387  58.2917373  22.2252249  70.4361387  56.5467373  23.2722249
  70.1351387  55.2177373  23.3362249  70.3141387  54.5797373  22.4832249
  69.6991387  54.8357373  24.4922249  69.7211387  55.9977373  25.2492249
  69.3791387  56.2647373  26.5882249  68.9221387  55.3317373  27.4342249
  68.6921387  55.5817373  28.3852249  68.8071387  54.3787373  27.1212249
  69.5151387  57.5337373  27.0182249  69.9701387  58.4527373  26.1782249
  70.0871387  59.4717373  26.5152249  70.3291387  58.3317373  24.9172249
  70.1711387  57.0527373  24.5122249  72.8441387  56.2467373  21.1742249
  72.8561387  55.3327373  21.7682249  72.4771387  57.4227373  22.0632249
  73.3001387  57.6327373  22.7472249  72.2861387  58.2997373  21.4452249
  74.1331387  56.4157373  20.5742249  75.4231387  56.4447373  21.4792249
  76.5601387  56.9977373  20.6972249  75.6551387  55.1217373  22.1032249
  74.9831387  57.4947373  22.5922249  75.1331387  58.8997373  22.3332249
  74.2431387  59.2767373  21.8292249  76.0011387  59.0607373  21.6932249
  75.3291387  59.6577373  23.6332249  75.5351387  60.7067373  23.4212249
  74.0791387  59.6747373  24.3672249  74.3401387  59.5867373  25.7582249
  73.8511387  60.3867373  26.3132249  73.6721387  58.3597373  26.2792249
  73.4301387  57.2927373  25.4492249  73.7521387  57.3217373  24.4192249
  72.8361387  56.1847373  25.9062249  72.5431387  54.9907373  25.0472249
  73.4751387  54.5987373  24.6392249  72.0581387  54.2207373  25.6472249
  71.8831387  55.2837373  24.2302249  72.4231387  56.0727373  27.2882249
  71.8701387  55.0907373  27.7962249  72.7121387  57.1887373  28.0432249
  72.4191387  57.1577373  29.0922249  73.3291387  58.3477373  27.6022249
  73.5371387  59.2847373  28.3512249  76.3261387  59.0367373  24.6102249
  76.2601387  57.9487373  24.6282249  75.8531387  59.5947373  25.9402249
  76.5831387  59.3587373  26.7142249  75.7441387  60.6767373  25.8632249
  77.6821387  59.4047373  24.3312249  78.8471387  58.8657373  25.2462249
  80.0751387  59.6657373  25.0012249  78.9941387  57.3987373  25.0972249
  78.2711387  59.2047373  26.6922249  78.4571387  60.5227373  27.2322249
  77.6401387  61.1687373  26.9122249  79.4001387  60.9337373  26.8712249
  78.4881387  60.4717373  28.7492249  78.7231387  61.4587373  29.1472249
  77.1551387  60.1887373  29.2432249  77.2361387  59.3657373  30.3952249
  76.6651387  59.8187373  31.2062249  76.5051387  58.0977373  30.1152249
  76.3581387  57.6457373  28.8382249  76.7651387  58.2107373  28.0122249
  75.7041387  56.4877373  28.5822249  75.6201387  56.1257373  27.5572249
  75.1631387  55.7837373  29.7092249  74.5081387  54.6427373  29.5312249
  74.1431387  54.1787373  30.3502249  74.3871387  54.2647373  28.6022249
  75.3081387  56.2337373  30.9672249  75.9821387  57.3977373  31.1912249
  76.1411387  57.8567373  32.3342249  79.3511387  59.3637373  29.3492249
  79.2801387  58.4357373  28.7822249  78.7141387  59.1727373  30.7152249
  79.3401387  58.5167373  31.3202249  78.6171387  60.1387373  31.2102249
  80.7321387  59.7277373  29.4522249  81.7701387  58.7107373  30.0632249
  83.0221387  59.4327373  30.4102249  81.9311387  57.5327373  29.1782249
  81.0171387  58.2797373  31.3982249  81.1361387  59.1027373  32.5702249
  80.3671387  59.8757373  32.5552249  82.1181387  59.5757373  32.5842249
  80.9741387  58.2627373  33.8232249  81.1591387  58.8777373  34.7042249
  79.5881387  57.8557373  33.9492249  79.5201387  56.5487373  34.4922249
  78.8761387  56.4897373  35.3702249  78.8271387  55.6687373  33.5082249
  78.7561387  55.8177373  32.1542249  79.2811387  56.6277373  31.6702249
  78.0791387  54.8877373  31.5612249  77.6791387  54.0627373  32.6022249
  76.9251387  52.8737373  32.6332249  76.4131387  52.2927373  31.5402249
  75.8801387  51.4387373  31.6252249  76.5601387  52.7087373  30.6312249
  76.7091387  52.3137373  33.8392249  77.2191387  52.8897373  34.9182249
  77.0551387  52.4447373  35.8892249  77.9411387  53.9857373  35.0212249
  78.1321387  54.5297373  33.7992249  81.7501387  56.9467373  33.8362249
  81.7491387  56.4607373  32.8602249  80.9451387  56.1137373  34.8172249
  81.4871387  55.1957373  35.0462249  80.7891387  56.6817373  35.7342249
  83.1081387  57.1057373  34.2632249  84.0571387  55.8507373  34.3492249
  85.2571387  56.1947373  35.1562249  84.3261387  55.3037373  32.9982249
  83.1391387  54.8377373  35.1662249  83.1111387  54.9147373  36.6002249
  82.3531387  55.6317373  36.9142249  84.0841387  55.2407373  36.9662249
  82.7891387  53.5557373  37.1942249  82.8621387  53.6017373  38.2812249
  81.3971387  53.2407373  36.9372249  81.2571387  51.8507373  36.6972249
  80.4821387  51.4517373  37.3522249  80.6921387  51.6677373  35.3302249
  80.7821387  52.5027373  34.2422249  81.3211387  53.4347373  34.3202249
  80.1671387  52.0517373  33.1692249  79.6461387  50.8237373  33.5802249
  78.8831387  49.8737373  32.8622249  78.5021387  49.9047373  31.6962249
  78.5501387  48.7737373  33.6652249  78.0021387  48.0487373  33.2482249
  78.9141387  48.6137373  34.9932249  78.5011387  47.4957373  35.5912249
  77.9421387  46.7597373  35.1842249  78.7581387  47.3817373  36.5612249
  79.6321387  49.5127373  35.6702249  79.9601387  50.5847373  34.8992249
  83.5541387  52.3787373  36.5912249  83.6761387  52.4767373  35.5122249
  82.6281387  51.2127373  36.8922249  83.1341387  50.2767373  36.6562249
  82.3601387  51.2247373  37.9482249  84.8471387  52.1957373  37.1802249
  85.7741387  51.0187373  36.6902249  86.8621387  50.8047373  37.6802249
  86.2111387  51.2437373  35.2922249  84.7571387  49.7957373  36.7462249
  84.5471387  49.1107373  37.9912249  83.7571387  49.6077373  38.5542249
  85.4671387  49.1277373  38.5752249  84.1481387  47.6677373  37.7392249
  84.0831387  47.1327373  38.6862249  82.8001387  47.6317373  37.2082249
  82.6881387  46.5867373  36.2562249  81.8591387  45.9127373  36.4712249
  82.3001387  47.1887373  34.9482249  82.5411387  48.4547373  34.5022249
  83.1151387  49.1427373  35.1062249  82.0801387  48.6867373  33.3152249
  81.5001387  47.4817373  32.9502249  80.8341387  47.0647373  31.7812249
  80.6301387  47.8597373  30.7222249  80.1451387  47.5047373  29.9102249
  80.9611387  48.8137373  30.7362249  80.3771387  45.7987373  31.7512249
  80.5831387  45.0137373  32.7992249  80.2251387  43.9947373  32.7832249
  81.1911387  45.2777373  33.9362249  81.6291387  46.5547373  33.9402249
  84.9811387  46.9317373  36.6912249  85.2391387  47.5727373  35.8482249
  84.0211387  45.8487373  36.2292249  84.5501387  45.1417373  35.5902249
  83.6201387  45.3237373  37.0962249  86.1881387  46.3777373  37.2272249
  87.1671387  45.5717373  36.2912249  88.1201387  44.7957373  37.1282249
  87.7781387  46.4647373  35.2792249  86.1481387  44.5747373  35.5832249
  85.7791387  43.3547373  36.2472249  84.9251387  43.5367373  36.9002249
  86.6171387  42.9987373  36.8472249  85.4121387  42.2907373  35.2312249
  85.2251387  41.3447373  35.7392249  84.1421387  42.6317373  34.6212249
  84.1491387  42.2517373  33.2552249  83.2721387  41.6387373  33.0442249
  83.9321387  43.4727373  32.4292249  84.2781387  44.7037373  32.9022249
  84.7061387  44.8047373  33.8882249  84.0931387  45.8137373  32.1502249
  84.3991387  46.7877373  32.5332249  83.5021387  45.6307373  30.8542249
  83.2901387  46.6767373  30.0652249  82.8721387  46.5057373  29.1612249
  83.5431387  47.6057373  30.3722249  83.1601387  44.4167373  30.3932249
  83.3701387  43.3167373  31.1722249  83.0701387  42.1737373  30.7942249
  86.3681387  42.1567373  34.0472249  86.7321387  43.1247373  33.7022249
  85.4721387  41.5447373  32.9842249  86.0761387  41.2417373  32.1292249
  84.9631387  40.6727373  33.3952249  87.4971387  41.3217373  34.3352249
  88.5841387  41.0597373  33.2252249  89.4211387  39.8967373  33.6202249
  89.3211387  42.3047373  32.9092249  87.6601387  40.6547373  31.9922249
  87.2071387  39.2977373  31.8692249  86.2781387  39.1697373  32.4242249
  87.9611387  38.6237373  32.2762249  86.9691387  38.9517373  30.4102249
  86.7171387  37.8957373  30.3182249  85.7881387  39.6487373  29.9412249
  85.9671387  40.0407373  28.5922249  85.1561387  39.7037373  27.9472249
  85.8601387  41.5257373  28.5182249  86.1191387  42.4357373  29.5032249
  86.4911387  42.1067373  30.4622249  85.9351387  43.6627373  29.1402249
  85.5341387  43.5557373  27.8182249  85.1881387  44.5197373  26.8502249
  85.1891387  45.8387373  27.0852249  84.9311387  46.4827373  26.3512249
  85.4481387  46.1887373  27.9962249  84.8301387  44.0677373  25.6322249
  84.8331387  42.7627373  25.4022249  84.5521387  42.3917373  24.4272249
  85.1401387  41.7697373  26.2102249  85.4851387  42.2527373  27.4252249
  88.0681387  39.3917373  29.4452249  88.4761387  40.3687373  29.7052249
  87.3131387  39.4917373  28.1302249  88.0211387  39.6417373  27.3152249
  86.7541387  38.5717373  27.9612249  89.1481387  38.4547373  29.3662249
  90.3671387  38.7377373  28.4082249  91.1441387  37.4857373  28.2152249
  91.1421387  39.9087373  28.8792249  89.6061387  39.1037373  27.0572249
  89.1691387  38.0477373  26.1872249  88.1771387  37.7117373  26.4882249
  89.8641387  37.2107373  26.2532249  89.1171387  38.5347373  24.7522249
  88.8751387  37.7027373  24.0902249  88.0071387  39.4547373  24.6002249
  88.3571387  40.4827373  23.6882249  87.5901387  40.5557373  22.9172249
  88.2651387  41.7887373  24.4012249  88.3931387  42.0477373  25.7442249
  88.5871387  41.2397373  26.4342249  88.2561387  43.3197373  26.0592249
  88.0321387  43.9397373  24.8302249  87.8111387  45.3037373  24.5282249
  87.7691387  46.2697373  25.2842249  87.6161387  45.4977373  23.1522249
  87.4451387  46.4317373  22.8402249  87.6361387  44.4977373  22.1922249
  87.4291387  44.8787373  20.9332249  87.2481387  45.8157373  20.6042249
  87.4351387  44.1497373  20.2342249  87.8431387  43.2107373  22.4812249
  88.0331387  43.0107373  23.8142249  90.3311387  39.3377373  24.2872249
  90.7051387  40.0017373  25.0662249  89.7491387  40.1637373  23.1542249
  90.5551387  40.6677373  22.6202249  89.2121387  39.5107373  22.4662249
  91.4101387  38.5087373  23.8412249  92.7411387  39.1667373  23.3132249
  93.5331387  38.1507373  22.5722249  93.4531387  39.8607373  24.4112249
  92.1591387  40.2367373  22.2892249  91.8331387  39.8277373  20.9512249
  90.8091387  39.4547373  20.9212249  92.5121387  39.0347373  20.6382249
  91.9651387  40.9967373  19.9942249  91.8081387  40.6547373  18.9712249
  90.8861387  41.9347373  20.2332249  91.3521387  43.2607373  20.0472249
  90.6931387  43.7827373  19.3532249  91.1731387  44.0017373  21.3282249
  91.1491387  43.3407373  22.5182249  91.2511387  42.2657373  22.5432249
  90.9981387  44.0127373  23.6832249  91.0071387  43.4707373  24.6282249
  90.8461387  45.4377373  23.5982249  90.6921387  46.1587373  24.7012249
  90.5881387  47.1577373  24.5982249  90.6811387  45.7097373  25.6062249
  90.8681387  46.0847373  22.4212249  91.0331387  45.3787373  21.2672249
  91.0591387  45.9307373  20.1542249  93.2311387  41.8377373  20.1572249
  93.5061387  41.9687373  21.2042249  92.7991387  43.1727373  19.5772249
  93.6671387  43.8257373  19.4812249  92.3531387  43.0157373  18.5952249
  94.3551387  41.2937373  19.4562249  95.7451387  42.0357373  19.5022249
  96.6211387  41.5067373  18.4252249  96.3131387  41.9997373  20.8692249
  95.3001387  43.5207373  19.1432249  95.1461387  43.8967373  17.7662249
  94.1341387  43.6657373  17.4342249  95.8571387  43.3397373  17.1552249
  95.4021387  45.3827373  17.5912249  95.3751387  45.6397373  16.5322249
  94.3031387  46.1267373  18.1732249  94.7921387  47.3177373  18.7672249
  94.2571387  48.1967373  18.4082249  94.4541387  47.2887373  20.2182249
  94.2851387  46.0917373  20.8702249  94.4311387  45.1607373  20.3432249
  93.9851387  46.0527373  22.1732249  93.7851387  44.7767373  22.9362249
  94.6961387  44.1807373  22.8932249  93.5511387  45.0067373  23.9752249
  92.9621387  44.2137373  22.4952249  93.8251387  47.2677373  22.9412249
  93.5511387  47.3267373  24.1442249  94.0191387  48.4177373  22.2042249
  93.9051387  49.3627373  22.7342249  94.3341387  48.4917373  20.8582249
  94.4811387  49.5607373  20.2952249  96.6381387  45.9237373  18.3082249
  96.7771387  45.4667373  19.2882249  96.2881387  47.3907373  18.4792249
  97.1631387  47.9347373  18.8362249  95.9701387  47.8027373  17.5212249
  97.8411387  45.7497373  17.5502249  99.2161387  46.2597373  18.1282249
 100.2201387  46.3137373  17.0342249  99.6051387  45.4727373  19.3222249
  98.8241387  47.7397373  18.5642249  98.8471387  48.7907373  17.5862249
  97.8841387  48.8387373  17.0782249  99.6281387  48.5887373  16.8532249
  99.1271387  50.1257373  18.2522249  99.2351387  50.9007373  17.4932249
  97.9651387  50.5287373  19.0192249  98.3781387  51.1947373  20.1992249
  97.8701387  52.1567373  20.2712249  97.8591387  50.4337373  21.3712249
  97.5971387  49.0997373  21.2742249  97.7561387  48.5817373  20.3402249
  97.1361387  48.4037373  22.3402249  96.9581387  47.3317373  22.2532249
  96.9201387  49.1387373  23.5542249  96.4671387  48.5197373  24.6362249
  96.3281387  49.0727373  25.4702249  96.2721387  47.5287373  24.6122249
  97.1771387  50.4537373  23.6442249  97.6511387  51.1237373  22.5542249
  97.9021387  52.3387373  22.5862249 100.2641387  50.1237373  19.2722249
 100.2761387  49.2127373  19.8702249  99.8981387  51.3037373  20.1552249
 100.7221387  51.5187373  20.8362249  99.7041387  52.1777373  19.5332249
 101.5531387  50.2887373  18.6702249 102.8441387  50.3237373  19.5732249
 103.9801387  50.8727373  18.7872249 103.0771387  49.0037373  20.2042249
 102.4051387  51.3797373  20.6812249 102.5541387  52.7827373  20.4142249
 101.6641387  53.1567373  19.9092249 103.4211387  52.9407373  19.7732249
 102.7511387  53.5477373  21.7102249 102.9571387  54.5957373  21.4912249
 101.5021387  53.5687373  22.4462249 101.7641387  53.4867373  23.8372249
 101.2481387  54.3017373  24.3452249 101.0971387  52.2627373  24.3662249
 100.7741387  51.1027373  23.7022249 101.0051387  50.9977373  22.6522249
 100.1851387  50.2007373  24.4592249 100.1281387  50.8087373  25.7132249
  99.6021387  50.3267373  26.9352249  99.0711387  49.2477373  27.1792249
  99.7391387  51.2747373  27.9602249  99.3871387  51.0287373  28.8632249
 100.3151387  52.5267373  27.8202249 100.3531387  53.2897373  28.9122249
  99.9971387  53.0577373  29.8282249 100.7651387  54.2057373  28.8082249
 100.8091387  52.9807373  26.6652249 100.6811387  52.0687373  25.6632249
 103.7491387  52.9327373  22.6902249 103.6831387  51.8447373  22.7132249
 103.2771387  53.4967373  24.0182249 104.0091387  53.2657373  24.7922249
 103.1661387  54.5777373  23.9352249 105.1051387  53.2987373  22.4082249
 106.2711387  52.7657373  23.3242249 107.4981387  53.5647373  23.0742249
 106.4181387  51.2987373  23.1832249 105.6971387  53.1117373  24.7692249
 105.8831387  54.4317373  25.3022249 105.0651387  55.0767373  24.9792249
 106.8251387  54.8417373  24.9382249 105.9151387  54.3887373  26.8192249
 106.1501387  55.3777373  27.2112249 104.5831387  54.1077373  27.3162249
 104.6661387  53.2917373  28.4722249 104.1141387  53.7167373  29.3102249
 103.9351387  52.0207373  28.1992249 103.7961387  51.5607373  26.9132249
 104.2461387  52.0977373  26.0912249 103.1451387  50.4207373  26.6562249
 102.9591387  49.8707373  25.2732249 103.9331387  49.6847373  24.8212249
 102.3991387  48.9367373  25.3252249 102.4091387  50.5897373  24.6662249
 102.5621387  49.6357373  27.7212249 101.9471387  48.5737373  27.5782249
 102.7561387  50.1727373  28.9752249 102.3311387  49.6217373  29.8142249
 103.4281387  51.3467373  29.2752249 103.5421387  51.7417373  30.4212249
 106.7791387  53.2837373  27.4242249 106.7081387  52.3527373  26.8622249
 106.1441387  53.0987373  28.7922249 106.7701387  52.4437373  29.3982249
 106.0491387  54.0667373  29.2832249 108.1611387  53.6497373  27.5242249
 109.2001387  52.6347373  28.1392249 110.4511387  53.3597373  28.4802249
 109.3601387  51.4527373  27.2602249 108.4481387  52.2117373  29.4762249
 108.5681387  53.0397373  30.6442249 107.7991387  53.8117373  30.6262249
 109.5501387  53.5137373  30.6552249 108.4081387  52.2067373  31.9012249
 108.5941387  52.8257373  32.7782249 107.0221387  51.7997373  32.0312249
 106.9551387  50.4957373  32.5812249 106.3111387  50.4427373  33.4592249
 106.2611387  49.6107373  31.6022249 106.1891387  49.7517373  30.2482249
 106.7141387  50.5587373  29.7592249 105.5111387  48.8197373  29.6602249
 105.1131387  47.9987373  30.7052249 104.3601387  46.8107373  30.7442249
 103.8471387  46.2237373  29.6532249 103.3141387  45.3707373  29.7422249
 103.9941387  46.6347373  28.7422249 104.1451387  46.2567373  31.9522249
 104.6561387  46.8387373  33.0292249 104.4931387  46.4007373  34.0032249
 105.3781387  47.9347373  33.1242249 105.5671387  48.4727373  31.9002249
 109.1851387  50.8907373  31.9202249 109.1841387  50.3987373  30.9472249
 108.3811387  50.0627373  32.9072249 108.9231387  49.1467373  33.1402249
 108.2271387  50.6357373  33.8222249 110.5431387  51.0537373  32.3442249
 111.4931387  49.7987373  32.4362249 112.6931387  50.1477373  33.2412249
 111.7601387  49.2447373  31.0882249 110.5761387  48.7907373  33.2592249
 110.5491387  48.8737373  34.6932249 109.7901387  49.5917373  35.0042249
 111.5231387  49.2017373  35.0572249 110.2281387  47.5177373  35.2942249
 110.3031387  47.5697373  36.3802249 108.8371387  47.2017373  35.0412249
 108.6971387  45.8097373  34.8082249 107.9261387  45.4067373  35.4652249
 108.1301387  45.6197373  33.4422249 108.3141387  46.5617373  32.4752249
 108.8681387  47.4627373  32.6942249 107.8101387  46.3867373  31.2312249
 107.9891387  47.1377373  30.4612249 107.0651387  45.1837373  30.9942249
 106.5411387  44.9487373  29.7972249 106.0241387  44.0907373  29.6712249
 106.6641387  45.6147373  29.0482249 106.8841387  44.2577373  31.9522249
 107.4141387  44.4607373  33.1912249 107.2741387  43.6367373  34.1102249
 110.9931387  46.3377373  34.6972249 111.1141387  46.4307373  33.6182249
 110.0681387  45.1727373  35.0052249 110.5741387  44.2357373  34.7742249
 109.8001387  45.1897373  36.0622249 112.2871387  46.1587373  35.2852249
 113.2141387  44.9797373  34.8002249 114.3031387  44.7707373  35.7902249
 113.6491387  45.1967373  33.4012249 112.1971387  43.7557373  34.8632249
 111.9891387  43.0777373  36.1122249 111.2001387  43.5777373  36.6732249
 112.9101387  43.0987373  36.6952249 111.5901387  41.6337373  35.8682249
 111.5261387  41.1037373  36.8182249 110.2421387  41.5947373  35.3392249
 110.1291387  40.5447373  34.3922249 109.2791387  39.9137373  34.6522249
 109.7391387  41.1387373  33.0822249 110.0471387  42.4317373  32.7832249
 110.5711387  43.0437373  33.5022249 109.7051387  42.9697373  31.5902249
 109.9811387  43.9987373  31.3582249 108.9931387  42.1247373  30.6752249
 108.6241387  42.5877373  29.4872249 108.1251387  41.9607373  28.8732249
 108.8421387  43.5367373  29.2202249 108.6891387  40.8497373  30.9742249
 109.0581387  40.3347373  32.1812249 108.8001387  39.1647373  32.5062249
 112.4221387  40.8917373  34.8232249 112.6791387  41.5287373  33.9762249
 111.4621387  39.8057373  34.3672249 111.9911387  39.0957373  33.7312249
 111.0621387  39.2847373  35.2372249 113.6301387  40.3417373  35.3612249
 114.6081387  39.5307373  34.4272249 115.5621387  38.7587373  35.2672249
 115.2181387  40.4177373  33.4112249 113.5881387  38.5287373  33.7262249
 113.2211387  37.3127373  34.3972249 112.3681387  37.4967373  35.0502249
 114.0601387  36.9607373  34.9972249 112.8531387  36.2427373  33.3852249
 112.6681387  35.2987373  33.8982249 111.5821387  36.5807373  32.7762249
 111.5881387  36.1947373  31.4122249 110.7091387  35.5837373  31.2102249
 111.3701387  37.4117373  30.5802249 111.6601387  38.7207373  30.8782249
 112.1081387  38.9727373  31.8282249 111.3411387  39.5697373  29.9232249
 110.8151387  38.7557373  28.9202249 110.3011387  39.0977373  27.6482249
 110.2011387  40.2007373  27.1222249 109.8571387  37.9617373  26.9542249
 109.4651387  38.1027373  26.0452249 109.9101387  36.6617373  27.4312249
 109.4381387  35.7127373  26.6232249 109.0361387  35.8407373  25.7052249
 109.4681387  34.7657373  26.9732249 110.3931387  36.3417373  28.6342249
 110.8261387  37.4357373  29.3162249 113.8081387  36.1037373  32.2012249
 114.1721387  37.0697373  31.8512249 112.9111387  35.4877373  31.1422249
 113.5141387  35.1817373  30.2872249 112.4031387  34.6177373  31.5572249
 114.9371387  35.2707373  32.4922249 116.0231387  35.0037373  31.3822249
 116.8611387  33.8427373  31.7832249 116.7601387  36.2477373  31.0592249
 115.0981387  34.5917373  30.1532249 114.6461387  33.2337373  30.0372249
 113.7181387  33.1067373  30.5942249 115.4021387  32.5627373  30.4452249
 114.4061387  32.8807373  28.5812249 114.1541387  31.8237373  28.4952249
 113.2241387  33.5747373  28.1102249 113.4021387  33.9607373  26.7582249
 112.5531387  33.6077373  26.1722249 113.2941387  35.4457373  26.6772249
 113.5481387  36.3807373  27.6522249 113.8731387  36.0667373  28.6332249
 113.3551387  37.6237373  27.2622249 112.9581387  37.4937373  25.9302249
 112.6111387  38.4867373  24.9852249 112.5821387  39.7067373  25.1152249
 112.2561387  37.9177373  23.7532249 111.9851387  38.5407373  23.0202249
 112.2441387  36.5597373  23.4732249 111.8771387  36.2097373  22.2412249
 111.5961387  36.8267373  21.4922249 111.8601387  35.2197373  22.0392249
 112.5701387  35.6247373  24.3692249 112.9161387  36.1657373  25.5682249
 115.5041387  33.3167373  27.6112249 115.9131387  34.2947373  27.8652249
 114.7471387  33.4097373  26.2982249 115.4531387  33.5557373  25.4812249
 114.1881387  32.4887373  26.1342249 116.5841387  32.3787373  27.5362249
 117.8021387  32.6577373  26.5752249 118.5791387  31.4037373  26.3882249
 118.5771387  33.8317373  27.0402249 117.0391387  33.0157373  25.2242249
 116.6011387  31.9557373  24.3602249 115.6081387  31.6227373  24.6632249
 117.2961387  31.1187373  24.4302249 116.5481387  32.4367373  22.9212249
 116.3061387  31.6017373  22.2632249 115.4371387  33.3547373  22.7662249
 115.7861387  34.3777373  21.8502249 115.0621387  34.4827373  21.0422249
 115.6941387  35.6877373  22.5552249 115.8291387  35.9327373  23.8912249
 116.0761387  35.1277373  24.5672249 115.6961387  37.1787373  24.2092249
 115.4641387  37.8027373  22.9922249 115.2461387  39.1497373  22.6432249
 115.2211387  40.1507373  23.5342249 115.0601387  41.0987373  23.2242249
 115.3631387  39.9577373  24.5152249 115.0431387  39.4227373  21.3402249
 115.0701387  38.4297373  20.4622249 114.9101387  38.6397373  19.4152249
 115.2711387  37.1437373  20.6562249 115.4611387  36.8997373  21.9722249
 117.7611387  33.2367373  22.4522249 118.1361387  33.9047373  23.2272249
 117.1771387  34.0577373  21.3152249 117.9821387  34.5597373  20.7782249
 116.6391387  33.4007373  20.6312249 118.8401387  32.4057373  22.0092249
 120.1701387  33.0617373  21.4762249 120.9611387  32.0407373  20.7392249
 120.8831387  33.7617373  22.5702249 119.5871387  34.1267373  20.4462249
 119.2591387  33.7097373  19.1122249 118.2351387  33.3377373  19.0872249
 119.9371387  32.9147373  18.8022249 119.3901387  34.8747373  18.1492249
 119.2321387  34.5257373  17.1282249 118.3101387  35.8127373  18.3842249
 118.7761387  37.1377373  18.1912249 118.1121387  37.6517373  17.4962249
 118.5981387  37.8857373  19.4682249 118.5571387  37.3997373  20.7522249
 118.6601387  36.3397373  20.9332249 118.3851387  38.3287373  21.6702249
 118.3201387  39.5117373  20.9342249 118.1421387  40.8457373  21.3702249
 118.0081387  41.2777373  22.5102249 118.1231387  41.7387373  20.2882249
 117.9941387  42.7087373  20.4952249 118.2611387  41.3837373  18.9552249
 118.2151387  42.3777373  18.0692249 118.0791387  43.3597373  18.2632249
 118.3071387  42.1197373  17.0972249 118.4251387  40.1237373  18.5462249
 118.4461387  39.2477373  19.5882249 120.6551387  35.7167373  18.3052249
 120.9301387  35.8517373  19.3512249 120.2231387  37.0497373  17.7192249
 121.0911387  37.7007373  17.6182249 119.7751387  36.8877373  16.7392249
 121.7791387  35.1687373  17.6072249 123.1681387  35.9127373  17.6472249
 124.0441387  35.3777373  16.5722249 123.7381387  35.8837373  19.0152249
 122.7231387  37.3957373  17.2812249 122.5661387  37.7637373  15.9012249
 121.5531387  37.5327373  15.5732249 123.2761387  37.2037373  15.2922249
 122.8221387  39.2487373  15.7202249 122.7941387  39.4997373  14.6602249
 121.7231387  39.9957373  16.2992249 122.2131387  41.1897373  16.8862249
 121.6441387  42.0367373  16.5022249 121.8771387  41.1687373  18.3382249
 121.6721387  40.0857373  19.1582249 121.7491387  39.0847373  18.7612249
 121.3871387  40.4047373  20.4042249 121.4191387  41.7997373  20.4022249
 121.1911387  42.7167373  21.4562249 120.9151387  42.4947373  22.6302249
 121.3111387  44.0417373  21.0142249 121.1581387  44.7647373  21.6882249
 121.6171387  44.4307373  19.7202249 121.6871387  45.7407373  19.4932249
 121.5301387  46.4827373  20.1602249 121.9011387  46.0237373  18.5482249
 121.8291387  43.5627373  18.7272249 121.7151387  42.2727373  19.1432249
 124.0591387  39.7937373  16.4322249 124.2001387  39.3417373  17.4142249
 123.7081387  41.2627373  16.5962249 124.5831387  41.8087373  16.9492249
 123.3891387  41.6697373  15.6372249 125.2611387  39.6167373  15.6732249
 126.6361387  40.1297373  16.2472249 127.6391387  40.1777373  15.1522249
 127.0271387  39.3497373  17.4452249 126.2451387  41.6117373  16.6772249
 126.2661387  42.6587373  15.6922249 125.3031387  42.7037373  15.1832249
 127.0461387  42.4537373  14.9592249 126.5461387  43.9977373  16.3512249
 126.6531387  44.7697373  15.5892249 125.3851387  44.4027373  17.1182249
 125.7991387  45.0757373  18.2952249 125.2891387  46.0367373  18.3622249
 125.2811387  44.3197373  19.4702249 125.0201387  42.9857373  19.3812249
 125.1791387  42.4637373  18.4492249 124.5601387  42.2947373  20.4512249
 124.3801387  41.2227373  20.3702249 124.3461387  43.0357373  21.6602249
 123.8941387  42.4217373  22.7472249 123.7571387  42.9787373  23.5782249
 123.6991387  41.4307373  22.7282249 124.6021387  44.3527373  21.7442249
 125.0751387  45.0157373  20.6512249 125.3261387  46.2317373  20.6762249
 127.6841387  43.9997373  17.3702249 127.6971387  43.0917373  17.9732249
 127.3191387  45.1847373  18.2482249 128.1441387  45.4027373  18.9272249
 127.1251387  46.0557373  17.6222249 128.9731387  44.1627373  16.7662249
 130.2651387  44.2027373  17.6672249 131.3991387  44.7487373  16.8782249
 130.4991387  42.8867373  18.3052249 129.8261387  45.2647373  18.7712249
 129.9751387  46.6667373  18.4972249 129.0841387  47.0377373  17.9922249
 130.8411387  46.8217373  17.8542249 130.1731387  47.4367373  19.7892249
 130.3791387  48.4837373  19.5652249 128.9251387  47.4617373  20.5262249
 129.1881387  47.3867373  21.9172249 128.7121387  48.1907373  22.4782249
 128.5231387  46.1657373  22.4522249 128.2121387  45.0167373  21.7852249
 128.4951387  44.8987373  20.7492249 127.6341387  44.1247373  22.5212249
 127.5651387  44.7267373  23.7682249 127.0591387  44.2867373  25.0062249
 126.4971387  43.0837373  25.1912249 126.1511387  42.8227373  26.1032249
 126.4191387  42.4387373  24.4182249 127.1451387  45.1397373  26.0452249
 127.7041387  46.3267373  25.8582249 127.7821387  47.0167373  26.6862249
 128.2171387  46.8487373  24.7642249 128.1071387  45.9757373  23.7392249
 131.1721387  46.8267373  20.7702249 131.1071387  45.7387373  20.8002249
 130.7021387  47.3987373  22.0962249 131.4341387  47.1707373  22.8712249
 130.5921387  48.4797373  22.0072249 132.5271387  47.1937373  20.4852249
 133.6951387  46.6647373  21.4022249 134.9221387  47.4627373  21.1462249
 133.8421387  45.1967373  21.2682249 133.1221387  47.0177373  22.8452249
 133.3081387  48.3417373  23.3722249 132.4891387  48.9837373  23.0482249
 134.2491387  48.7507373  23.0052249 133.3431387  48.3057373  24.8892249
 133.5781387  49.2967373  25.2762249 132.0111387  48.0267373  25.3892249
 132.0961387  47.2157373  26.5502249 131.5271387  47.6757373  27.3582249
 131.3641387  45.9437373  26.2842249 131.2151387  45.4797373  25.0122249
 131.6201387  46.0367373  24.1802249 130.5611387  44.3187373  24.7692249
 130.4721387  43.9477373  23.7482249 130.0231387  43.6247373  25.9052249
 129.3681387  42.4827373  25.7392249 129.0051387  42.0257373  26.5632249
 129.2451387  42.0967373  24.8142249 130.1711387  44.0897373  27.1572249
 130.8441387  45.2557373  27.3682249 131.0061387  45.7267373  28.5062249
 134.2081387  47.2037373  25.4992249 134.1361387  46.2697373  24.9422249
 133.5741387  47.0267373  26.8682249 134.2011387  46.3767373  27.4782249
 133.4791387  47.9977373  27.3532249 135.5891387  47.5697373  25.5962249
 136.6291387  46.5597373  26.2142249 137.8811387  47.2877373  26.5512249
 136.7891387  45.3737373  25.3412249 135.8791387  46.1437373  27.5552249
 136.0001387  46.9777373  28.7182249 135.2301387  47.7497373  28.6962249
 136.9821387  47.4517373  28.7252249 135.8411387  46.1497373  29.9802249
 136.0281387  46.7727373  30.8552249 134.4571387  45.7437373  30.1132249
 134.3911387  44.4427373  30.6702249 133.7401387  44.4077373  31.5432249
 133.6961387  43.5527373  29.6972249 133.7181387  43.8387373  28.3542249
 134.2681387  44.6937373  27.9892249 133.1021387  43.0457373  27.4702249
 133.0901387  43.3087373  25.9932249 134.1131387  43.3187373  25.6172249
 132.5261387  42.5247373  25.4882249 132.6221387  44.2737373  25.7992249
 132.3871387  41.8637373  27.8962249 131.7921387  41.0757373  27.1542249
 132.4241387  41.6567373  29.2592249 131.8971387  40.7787373  29.6342249
 133.0551387  42.4537373  30.1992249 133.0261387  42.1867373  31.3852249
 136.6191387  44.8357373  30.0032249 136.6151387  44.3397373  29.0322249
 135.8171387  44.0117373  30.9962249 136.3611387  43.0967373  31.2332249
 135.6641387  44.5887373  31.9082249 137.9781387  44.9987373  30.4262249
 138.9281387  43.7467373  30.5232249 140.1291387  44.0997373  31.3252249
 139.1941387  43.1857373  29.1782249 138.0131387  42.7417373  31.3522249
 137.9871387  42.8327373  32.7862249 137.2291387  43.5527373  33.0942249
 138.9611387  43.1637373  33.1472249 137.6671387  41.4797373  33.3952249
 137.7421387  41.5377373  34.4812249 136.2761387  41.1617373  33.1442249
 136.1361387  39.7687373  32.9182249 135.3661387  39.3697373  33.5782249
 135.5681387  39.5717373  31.5552249 135.7501387  40.5077373  30.5822249
 136.3041387  41.4097373  30.7962249 135.2451387  40.3267373  29.3392249
 135.4231387  41.0727373  28.5652249 134.5001387  39.1217373  29.1102249
 133.9751387  38.8807373  27.9152249 133.4581387  38.0217373  27.7942249
 134.0971387  39.5427373  27.1622249 134.3211387  38.2007373  30.0722249
 134.8521387  38.4107373  31.3102249 134.7131387  37.5917373  32.2342249
 138.4321387  40.2967373  32.8032249 138.5511387  40.3837373  31.7232249
 137.5081387  39.1337373  33.1182249 138.0151387  38.1957373  32.8932249
 137.2411387  39.1577373  34.1742249 139.7271387  40.1207373  33.3902249
 140.6541387  38.9397373  32.9102249 141.7441387  38.7377373  33.9002249
 141.0871387  39.1507373  31.5092249 139.6381387  37.7167373  32.9812249
 139.4311387  37.0437373  34.2332249 138.6431387  37.5457373  34.7942249
 140.3521387  37.0667373  34.8152249 139.0321387  35.5987373  33.9972249
 138.9691387  35.0727373  34.9502249 137.6831387  35.5567373  33.4692249
 137.5701387  34.5027373  32.5282249 136.7191387  33.8747373  32.7942249
 137.1791387  35.0887373  31.2142249 137.4061387  36.3567373  30.7362249
 137.9341387  37.0767373  31.3432249 136.9281387  36.5657373  29.5272249
 136.3561387  35.3407373  29.1832249 135.6851387  34.9497373  28.0002249
 135.4531387  35.6037373  26.9892249 135.2511387  33.6187373  28.0742249
 134.7571387  33.2517373  27.2862249 135.4461387  32.7727373  29.1552249
 134.9591387  31.5387373  29.0382249 134.4531387  31.1567373  28.2522249
 135.0931387  30.9237373  29.8282249 136.0771387  33.1447373  30.2712249
 136.5031387  34.4347373  30.2102249 139.8631387  34.8527373  32.9542249
 140.1191387  35.4837373  32.1032249 138.9031387  33.7637373  32.5062249
 139.4311387  33.0507373  31.8732249 138.5051387  33.2477373  33.3802249
 141.0721387  34.3047373  33.4942249 142.0491387  33.4887373  32.5642249
 143.0051387  32.7237373  33.4062249 142.6571387  34.3727373  31.5412249
 141.0291387  32.4837373  31.8682249 140.6631387  31.2717373  32.5462249
 139.8101387  31.4597373  33.1982249 141.5031387  30.9227373  33.1472249
 140.2941387  30.1967373  31.5402249 140.1101387  29.2557373  32.0582249
 139.0221387  30.5307373  30.9302249 139.0271387  30.1357373  29.5682249
 138.1671387  29.5107373  29.3252249 138.8071387  31.3497373  28.7312249
 139.1661387  32.5907373  29.1972249 139.6411387  32.6937373  30.1612249
 138.9781387  33.6867373  28.4532249 139.3461387  35.0677373  28.9102249
 140.4161387  35.1107373  29.1142249 139.0961387  35.7877373  28.1302249
 138.7931387  35.3097373  29.8182249 138.3871387  33.6057373  27.1362249
 138.1781387  34.5607373  26.3802249 138.0661387  32.3197373  26.7532249
 137.6151387  32.2017373  25.7682249 138.2511387  31.1667373  27.4962249
 137.9281387  30.0737373  27.0692249 141.2481387  30.0517373  30.3562249
 141.6111387  31.0157373  30.0002249 140.3501387  29.4287373  29.3022249
 140.9521387  29.1187373  28.4482249 139.8431387  28.5607373  29.7232249
 142.3781387  29.2197373  30.6502249 143.4631387  28.9477373  29.5402249
 144.3011387  27.7897373  29.9452249 144.1981387  30.1897373  29.2102249
 142.5371387  28.5297373  28.3142249 142.0841387  27.1707373  28.2052249
 141.1561387  27.0467373  28.7632249 142.8391387  26.5017373  28.6172249
 141.8431387  26.8097373  26.7512249 141.5911387  25.7527373  26.6712249
 140.6601387  27.5017373  26.2782249 140.8361387  27.8797373  24.9232249
 139.9901387  27.5247373  24.3352249 140.7281387  29.3637373  24.8352249
 141.0171387  30.1487373  25.9122249 141.3191387  29.6977373  26.8462249
 140.9311387  31.4967373  25.8322249 141.1911387  32.1107373  26.6952249
 140.5051387  32.0487373  24.5772249 140.3961387  33.3627373  24.4302249
 140.0931387  33.7107373  23.5322249 140.6121387  33.9807373  25.1992249
 140.2191387  31.2717373  23.5192249 140.3271387  29.9167373  23.6302249
 140.0721387  29.1557373  22.6822249 142.9391387  27.2407373  25.7782249
 143.3471387  28.2207373  26.0282249 142.1811387  27.3277373  24.4652249
 142.8861387  27.4697373  23.6462249 141.6211387  26.4057373  24.3062249
 144.0201387  26.3037373  25.7062249 145.2371387  26.5777373  24.7432249
 146.0141387  25.3237373  24.5622249 146.0121387  27.7547373  25.2002249
 144.4731387  26.9297373  23.3912249 144.0341387  25.8647373  22.5332249
 143.0431387  25.5307373  22.8402249 144.7291387  25.0287373  22.6062249
 143.9781387  26.3367373  21.0912249 143.7351387  25.4997373  20.4372249
 142.8671387  27.2547373  20.9332249 143.2151387  28.2737373  20.0112249
 142.4501387  28.3397373  19.2372249 143.1231387  29.5857373  20.7102249
 143.2751387  29.6677373  22.0612249 143.4561387  28.7747373  22.6412249
 143.2031387  30.8607373  22.6982249 143.3511387  30.9117373  23.7772249
 142.9421387  32.0157373  21.8872249 142.8561387  33.2167373  22.4472249
 142.6711387  34.0047373  21.8432249 142.9741387  33.3227373  23.4442249
 142.7901387  31.9307373  20.5552249 142.8791387  30.7147373  19.9442249
 142.7451387  30.5827373  18.7162249 145.1911387  27.1357373  20.6172249
 145.5661387  27.8077373  21.3882249 144.6051387  27.9507373  19.4762249
 145.4091387  28.4507373  18.9362249 144.0671387  27.2907373  18.7962249
 146.2691387  26.3037373  20.1762249 147.5991387  26.9567373  19.6392249
 148.3901387  25.9337373  18.9062249 148.3131387  27.6627373  20.7292249
 147.0141387  28.0167373  18.6052249 146.6851387  27.5927373  17.2722249
 145.6611387  27.2187373  17.2492249 147.3641387  26.7967373  16.9662249
 146.8141387  28.7527373  16.3032249 146.6541387  28.3997373  15.2842249
 145.7351387  29.6917373  16.5352249 146.1991387  31.0147373  16.3342249
 145.5821387  31.5737373  15.6302249 146.0231387  31.7697373  17.6072249
 145.9901387  31.2757373  18.8792249 146.1481387  30.2217373  19.0552249
 145.8221387  32.1807373  19.7872249 145.7461387  33.3607373  19.0612249
 145.5781387  34.7037373  19.4502249 145.4441387  35.0947373  20.7242249
 145.3261387  36.0737373  20.9422249 145.4611387  34.4107373  21.4672249
 145.5411387  35.6267373  18.4702249 145.6761387  35.2367373  17.2102249
 145.6511387  35.9707373  16.4182249 145.8471387  34.0267373  16.7222249
 145.8691387  33.1217373  17.7252249 148.0791387  29.5957373  16.4542249
 148.3551387  29.7357373  17.4992249 147.6461387  30.9257373  15.8622249
 148.5141387  31.5767373  15.7572249 147.1971387  30.7597373  14.8832249
 149.2031387  29.0447373  15.7582249 150.5921387  29.7877373  15.7922249
 151.4661387  29.2487373  14.7182249 151.1631387  29.7667373  17.1592249
 150.1461387  31.2707373  15.4192249 149.9871387  31.6317373  14.0372249
 148.9741387  31.3977373  13.7102249 150.6961387  31.0687373  13.4302249
 150.2421387  33.1157373  13.8472249 150.2121387  33.3627373  12.7862249
 149.1441387  33.8657373  14.4252249 149.6341387  35.0627373  15.0052249
 149.0691387  35.9117373  14.6192249 149.2991387  35.0477373  16.4582249
 149.1241387  33.8707373  17.1212249 149.2171387  32.9327373  16.5942249
 148.8321387  33.8547373  18.4432249 148.7241387  32.9037373  18.9652249
 148.6961387  35.1257373  19.0942249 148.4081387  35.1837373  20.3882249
 148.3211387  36.0977373  20.8092249 148.2831387  34.3347373  20.9202249
 148.8671387  36.2857373  18.4362249 149.1721387  36.2657373  17.1072249
 149.3381387  37.3087373  16.4542249 151.4801387  33.6637373  14.5562249
 151.6231387  33.2167373  15.5402249 151.1281387  35.1327373  14.7132249
 152.0031387  35.6807373  15.0632249 150.8081387  35.5347373  13.7522249
 152.6811387  33.4837373  13.7972249 154.0571387  34.0007373  14.3682249
 155.0591387  34.0437373  13.2702249 154.4501387  33.2267373  15.5682249
 153.6651387  35.4847373  14.7892249 153.6851387  36.5267373  13.8002249
 152.7211387  36.5687373  13.2932249 154.4651387  36.3177373  13.0672249
 153.9651387  37.8677373  14.4512249 154.0711387  38.6347373  13.6842249
 152.8051387  38.2777373  15.2162249 153.2211387  38.9557373  16.3912249
 152.7401387  39.9287373  16.4882249 152.7041387  38.2067373  17.5712249
 152.4511387  36.8597373  17.4832249 152.6581387  36.3267373  16.5672249
 151.9911387  36.1747373  18.5352249 151.6931387  34.7047373  18.4972249
 152.6011387  34.1557373  18.2462249 151.3321387  34.3817373  19.4732249
 150.9301387  34.5077373  17.7442249 151.7401387  36.8277373  19.8022249
 151.3181387  36.2767373  20.8242249 152.0281387  38.1757373  19.7942249
 151.8551387  38.7167373  20.7242249 152.5081387  38.9127373  18.7242249
 152.7281387  40.1057373  18.8192249 155.1051387  37.8767373  15.4692249
 155.1201387  36.9717373  16.0762249 154.7401387  39.0657373  16.3412249
 155.5651387  39.2877373  17.0172249 154.5441387  39.9327373  15.7102249
 156.3921387  38.0377373  14.8622249 157.6851387  38.0817373  15.7632249
 158.8191387  38.6237373  14.9682249 157.9211387  36.7687373  16.4062249
 157.2481387  39.1487373  16.8602249 157.3961387  40.5497373  16.5802249
 156.5041387  40.9187373  16.0732249 158.2621387  40.7027373  15.9362249
 157.5951387  41.3267373  17.8672249 157.8001387  42.3727373  17.6372249
 156.3481387  41.3547373  18.6052249 156.6131387  41.2867373  19.9962249
 156.1031387  42.1057373  20.5032249 155.9481387  40.0677373  20.5392249
 155.6971387  38.9967373  19.7362249 155.9701387  39.0257373  18.6922249
 155.1041387  37.8837373  20.2292249 154.9351387  37.0247373  19.5792249
 154.7401387  37.8997373  21.6182249 154.1541387  36.8437373  22.1662249
 153.9141387  36.8957373  23.1462249 153.9611387  36.0227373  21.6102249
 154.9881387  38.9597373  22.4052249 155.5971387  40.0617373  21.8802249
 155.8471387  41.0677373  22.5652249 158.5951387  40.7217373  18.8512249
 158.5311387  39.6347373  18.8872249 158.1271387  41.3007373  20.1742249
 158.8601387  41.0767373  20.9492249 158.0181387  42.3807373  20.0802249
 159.9501387  41.0877373  18.5612249 161.1191387  40.5647373  19.4812249
 162.3451387  41.3617373  19.2192249 161.2671387  39.0957373  19.3542249
 160.5481387  40.9247373  20.9232249 160.7341387  42.2497373  21.4422249
 159.9151387  42.8907373  21.1142249 161.6751387  42.6567373  21.0722249
 160.7701387  42.2227373  22.9592249 161.0051387  43.2167373  23.3402249
 159.4391387  41.9457373  23.4622249 159.5251387  41.1407373  24.6262249
 158.9521387  41.6097373  25.4262249 158.7941387  39.8677373  24.3682249
 158.5531387  39.2417373  23.1702249 158.9141387  39.6777373  22.2502249
 157.8701387  38.1207373  23.2802249 157.6601387  37.9967373  24.6532249
 156.9831387  36.9907373  25.3832249 156.4231387  35.9807373  24.9742249
 156.9941387  37.2627373  26.7602249 156.5331387  36.6097373  27.3612249
 157.5871387  38.3657373  27.3522249 157.4921387  38.4517373  28.6782249
 157.0241387  37.8047373  29.2972249 157.9171387  39.2607373  29.1092249
 158.2231387  39.3157373  26.6612249 158.2191387  39.0617373  25.3242249
 161.6361387  41.1247373  23.5742249 161.5641387  40.1877373  23.0212249
 161.0041387  40.9537373  24.9442249 161.6331387  40.3077373  25.5572249
 160.9081387  41.9277373  25.4242249 163.0181387  41.4917373  23.6682249
 163.5901387  40.8227373  24.0512249  30.0583820  23.2789810   8.3116900
 170.3926880  46.7522560  33.6410520 162.0142280  42.0531920  34.1937440
 167.9697020  62.2974460  35.0836110  96.0306030  43.9102780  50.3824690
 133.3997490  15.2738710  13.2537240 155.4151450  52.6877780  35.0191890
 139.9207050  83.6462320   1.7683000  84.4539610  70.8829510  21.6594910
 171.8578550  23.5556730   7.1009610 163.0202250  61.6825510  20.2635880
 135.0161200  31.0960950   8.4753990 121.6642360  37.2716600  46.2973170
  19.6215560  85.5507720   3.4336840 113.4933010  10.4533760  22.2080330
 152.1268880  74.9218140  55.0603100  13.7727550  28.4235540   1.7787610
 113.5683030  76.0641700  21.7909070 153.0951120  82.0878140  36.7658140
  59.9770400  12.2658350  11.6274020  74.6195280  75.8559680  37.2922440
   4.1442100  11.4875970  33.6467330 106.6971780  80.4569000  39.0379370
 161.6611930   3.8242880   5.3250350   5.9439090  39.5405360   4.4680170
  58.2851000  57.9801770  47.9582710  94.7939540  76.0641700   3.0165580
  39.5406790  17.8294260  28.5166760 136.8195740  80.5209790  50.9866680
  38.6153410  79.4800710  15.3345000  86.5637970  22.5986370  24.0993840
 136.6455470  58.8359890  27.2590940 137.3840820  71.6468800  56.4998890
  72.7088700  10.8730380  45.2466370 134.4717610  30.5593630  55.7726870
 104.9953900  66.3410110   8.8046550 134.4717610  11.7850140  55.7726870
 153.7904690  68.6447930  46.0240970  36.5834380  98.2579070  50.9089340
 169.4252450  80.3435440   5.4602500   7.4419000  69.4430640  11.9696370
 128.3257400  93.2867320  53.9732490 135.0991590  89.8177860   9.9347840
  31.1381390  64.0827930  31.6903240  23.9155880  80.1392370  46.7631500
   9.8664140  49.0437200  19.2034470  56.4469410   6.8221350  47.4957880
   1.9793060  34.0482200  32.0280730 133.3824960  39.2058280  10.4095730
  51.3626070  96.4794450  13.4831730 117.7873330  80.1392370  27.9888010
  93.5397590  44.7629260   7.2751680 148.6710200   8.4888070  41.6104630
 125.4968170  53.0078480  50.1326350   2.6824450  77.8248320  23.3941560
  72.2293630  66.5726850  34.8521310  36.4414410  45.8630470  33.7316890
 110.1828090  11.1528150  11.5611880  34.5729090   4.4250470  53.1600770
  83.5279980  38.1599180   6.2705220 142.0062160  83.7755650  23.9649810
  38.1125790  40.9459080  57.4554360  85.3040150  95.9196250  51.5577400
  56.0396620  91.2003120  28.2213270  14.3000460  67.8793620  18.6327680
 172.6231340  68.5888820  11.6274020 171.5392820  88.6775980  39.1631020
   5.0729120  82.9612940  46.5135300  73.9847480  16.0919750   5.2899450
  84.6940520  72.2050210  48.7558610 143.4586300  73.6035310   3.3188050
 142.5782920   1.8819820  27.2035420  12.8507230  71.7821970  50.1326350
 126.8358780  83.1329610  35.7954790 119.4574180  92.5434030  47.5243270
 118.0452250  24.1979320  32.2123190 140.7770080  89.6573000  59.2081890
  52.4715460  51.7110400  16.1359540 156.1387010  95.8635830  42.0167150
 117.5912190  17.9167850  32.8958300 128.1442580  70.4460630  12.5423970
  72.1737950  93.1664790  32.2764810 168.6998510  70.7326110   2.0154210
 130.5018790  16.7724860  55.0070870  26.2945400  80.5229620   5.2334110
 133.3824960  76.7545260  47.9582710  21.8256670  30.5593630  36.9983380
 113.5683030  19.7411230  59.3396050  89.3591720  48.0649620   4.5169240
  20.7064450  93.6961630  36.2859610 114.4143940  90.0516930   3.8743810
  48.6078320  66.1981340   2.7009170  21.6746690  25.7647670  36.7658140
  65.3109930  79.5301620  55.1769880  97.4294340  76.3414840  44.2852140
  22.3611060  11.3442250   4.2605820 101.4250170  45.8570780   7.9802330
  71.6301270  24.6541310   9.1389450  25.9387650   3.6714470  14.6355650
  20.9332070  25.1359290  31.6081200  65.6796120  89.6573000  59.2081890
  74.8281060  51.9582620   2.0154210 168.6992080  78.1643940  29.7436680
 124.1124950  97.6960330  24.0993840  37.1432960  83.0775020  18.2133070
 173.4486600  98.0145620  59.3114340 172.6728700  97.5346060  59.6012910
 174.0999530  97.3351270  59.1370500 165.8744380  93.2867320  53.9732490
 164.9861080  93.6283290  53.8712370 166.1585570  93.0867640  53.0813320
 163.8377390  95.8872970  59.8572190 164.4093500  95.1195170  59.8575830
 163.8378930  96.1861730  58.9478800 173.9200760  93.4973190  59.5453430
 174.2965580  92.6245070  59.4327100 173.8220270  93.8331890  58.6543870
 168.0505770  91.8698820  55.0070870 168.1572520  92.7702550  55.3139630
 167.1398130  91.8216790  54.7165520 169.8913500  94.8385190  59.3396050
 170.3991720  95.3366160  59.9801070 170.4226740  94.0620390  59.1635410
 171.5392820  88.6775980  57.9374510 171.8467800  88.1222870  57.2210010
 170.6093520  88.8120440  57.7547500 173.9273580  96.7424810  54.6734630
 173.0002860  96.6762190  54.9023100 174.0798400  97.6804940  54.5589870
 173.9142660  93.0141810  51.6701790 172.9746330  93.1755770  51.7554250
 174.2325920  93.7327490  51.1237780 169.5330220  97.2689550  57.4554360
 169.1287220  96.5566800  56.9600260 169.6193340  96.9242790  58.3442400
 166.2334850  96.1634530  54.9561010 166.1132450  96.8896620  54.3442280
 165.9235740  95.3937440  54.4788920 168.6998510  89.5069600  58.3384680
 168.2566660  90.2879140  58.0069200 169.2583500  89.8299490  59.0455620
 171.8157330  89.1280300  53.2190510 171.1911510  89.1240170  53.9443820
 171.7287450  88.2611260  52.8226480 170.7374410  90.0516930  60.1974280
 171.0346740  90.9579760  60.1166300 171.2859970  89.5635710  59.5833850
 168.4912730  94.6303170  56.0665930 168.2653650  94.4140340  56.9712550
 167.7105260  95.0631630  55.7211900 174.3275360  93.2730080  56.6959860
 174.7204930  93.5902280  55.8828550 174.6892210  92.3941960  56.8104380
 163.3639530  89.8630880  58.9190060 163.0752580  90.4333740  59.6315040
 164.1085290  89.3835330  59.2821290 163.5509760  93.8051000  50.1292780
 163.4684430  94.7481760  50.2707770 163.1992820  93.6625910  49.2505130
 171.3507890  92.5390030  59.1963130 171.3543950  92.0979980  58.3467670
 172.2459010  92.8607360  59.3034950 167.2010270  92.4216520  58.1557340
 166.8610320  92.8991750  58.9124390 166.4387590  91.9681640  57.7958440
 171.4128040  93.5402110  52.1869890 171.5340860  93.4988590  53.1355710
 171.0276550  94.4026260  52.0316620 170.4249540  95.8503250  51.5853190
 169.8566440  95.4021500  50.9589100 171.1338540  96.2096030  51.0518340
 164.5156350  91.3435500  57.0722010 164.2303270  90.9791170  57.9100630
 164.4535210  90.6115960  56.4585150 174.1894940  90.2364760  53.7935380
 173.3759550  89.7377930  53.7180690 173.9956890  91.0763010  53.3771730
 164.0087010  96.4794450  51.0318710 164.8781860  96.7619250  51.3154630
 163.5177330  97.2930320  50.9167520 171.1721820  97.8667660  55.1526990
 171.6284600  98.6772910  55.3787180 170.8210030  97.5490800  55.9845480
 167.0733600  88.2105310  55.6249510 166.9448230  88.2023210  56.5734430
 166.2495620  88.5488400  55.2740520 170.9012370  93.6961630  55.0603100
 170.1928520  94.1647970  55.5016710 171.1856850  93.0383640  55.6948290
 169.1047390  92.0046710  52.4353810 169.9537920  92.4416860  52.3694000
 168.7378660  92.3166970  53.2625870 168.0038810  98.2579070  50.9089340
 168.7702080  98.1460430  51.4714770 168.0813500  97.5617040  50.2566110
 166.6985570  95.6904140  51.5922230 166.7789160  94.7431650  51.7039630
 167.5905320  96.0211020  51.6982890 170.0357840  98.2544200  52.8831980
 170.4574260  98.0884070  53.7263370 170.1608680  97.4444430  52.3887120
 172.5485480  97.2781810  50.1309080 173.0691140  96.5630830  49.7650230
 173.1953880  97.9167680  50.4309590 168.9316740  94.3277430  49.8290140
 168.7305800  93.4644790  50.1903480 168.7608790  94.2410790  48.8911740
 167.7299540  91.4278050  49.8168020 168.0325440  91.4345480  48.9087170
 168.4694130  91.0775910  50.3135680 170.9484470  90.3712670  50.8024220
 170.6006470  89.6936660  50.2226670 171.1497240  89.9102180  51.6167610
 164.2890110  96.9000320  57.1988590 163.6338950  96.6311960  56.5548290
 165.1268060  96.7904800  56.7490570 163.5028190  94.1099250  53.1413920
 162.5992270  94.3729450  52.9665580 163.9868810  94.3810420  52.3613880
 166.0455400  93.1664790  51.0508300 166.7547100  92.7448010  50.5655580
 165.3295340  93.2340020  50.4191650 165.6929560  89.2204120  50.0910950
 166.4157690  89.7613060  50.4092170 165.9654080  88.9467540  49.2152490
 165.1176400  89.2597380  53.6846520 165.8755760  89.3726260  53.1110550
 164.6553570  90.0966580  53.6389950 171.6590210  91.3736650  56.6748830
 170.8464720  90.9993540  56.3344710 172.1631850  90.6181730  56.9770020
 167.4901550  89.7861430  52.2248490 168.0194310  88.9991230  52.0956440
 168.1229870  90.4652620  52.4584020 169.6839390  89.5236570  55.2793880
 169.0542130  88.8223880  55.4464010 169.1444530  90.2840700  55.0627040
 173.4486600  98.0145620  40.5370850 172.6728700  97.5346060  40.8269420
 174.0999530  97.3351270  40.3627010 167.4652430  98.3265430  41.4146610
 166.6337310  98.0714140  41.8143120 168.0733410  98.3976200  42.1504530
 165.8744380  93.2867320  35.1989000 164.9861080  93.6283290  35.0968880
 166.1585570  93.0867640  34.3069830 163.8377390  95.8872970  41.0828700
 164.4093500  95.1195170  41.0832340 163.8378930  96.1861730  40.1735310
 165.0802260  91.2957330  42.8697630 164.9005100  90.3983080  43.1500390
 164.6782340  91.8429200  43.5444580 173.9200760  93.4973190  40.7709940
 174.2965580  92.6245070  40.6583610 173.8220270  93.8331890  39.8800380
 168.0505770  91.8698820  36.2327380 168.1572520  92.7702550  36.5396140
 167.1398130  91.8216790  35.9422030 165.6988930  93.7917830  41.4779970
 166.3799040  94.0556200  42.0967370 165.3836980  92.9518700  41.8117980
 169.8913500  94.8385190  40.5652560 170.3991720  95.3366160  41.2057580
 170.4226740  94.0620390  40.3891920 168.1749600  89.4783750  44.8315980
 168.1768040  89.9956140  44.0261880 167.3453910  89.0013930  44.8085910
 167.8564930  91.1893710  42.8386430 168.1981740  92.0335760  42.5440300
 166.9180740  91.3377450  42.9551770 173.9273580  96.7424810  35.8991140
 173.0002860  96.6762190  36.1279610 174.0798400  97.6804940  35.7846380
 173.9142660  93.0141810  32.8958300 172.9746330  93.1755770  32.9810760
 174.2325920  93.7327490  32.3494290 169.5330220  97.2689550  38.6810870
 169.1287220  96.5566800  38.1856770 169.6193340  96.9242790  39.5698910
 168.2458840  94.0432760  42.4609910 168.7973430  94.1528100  41.6863160
 168.7602350  94.4170360  43.1765140 167.9201570  97.5652120  46.0715250
 167.7809340  98.4374920  46.4402650 167.0382930  97.2224930  45.9263190
 166.2334850  96.1634530  36.1817520 166.1132450  96.8896620  35.5698790
 165.9235740  95.3937440  35.7045430 168.6998510  89.5069600  39.5641190
 168.2566660  90.2879140  39.2325710 169.2583500  89.8299490  40.2712130
 172.9868320  92.3738120  45.1676510 172.5247690  92.5821140  45.9796450
 172.5846430  91.5597470  44.8647180 171.8157330  89.1280300  34.4447020
 171.1911510  89.1240170  35.1700330 171.7287450  88.2611260  34.0482990
 170.7374410  90.0516930  41.4230790 171.0346740  90.9579760  41.3422810
 171.2859970  89.5635710  40.8090360 168.4912730  94.6303170  37.2922440
 168.2653650  94.4140340  38.1969060 167.7105260  95.0631630  36.9468410
 170.9311940  95.5288750  47.9582710 170.8355540  94.5883480  47.8083110
 171.7743920  95.7503820  47.5630780 174.3275360  93.2730080  37.9216370
 174.7204930  93.5902280  37.1085060 174.6892210  92.3941960  38.0360890
 166.0622480  91.9402420  46.1116490 165.6685870  92.7877630  46.3189270
 165.3740880  91.3028790  46.3025130 172.6367530  92.0237390  49.1813230
 171.9465850  91.8309590  49.8159320 173.3799830  92.3072030  49.7137530
 163.3639530  89.8630880  40.1446570 163.0752580  90.4333740  40.8571550
 164.1085290  89.3835330  40.5077800 163.5509760  93.8051000  31.3549290
 163.4684430  94.7481760  31.4964280 163.1992820  93.6625910  30.4761640
 171.3507890  92.5390030  40.4219640 171.3543950  92.0979980  39.5724180
 172.2459010  92.8607360  40.5291460 167.2010270  92.4216520  39.3813850
 166.8610320  92.8991750  40.1380900 166.4387590  91.9681640  39.0214950
 171.4128040  93.5402110  33.4126400 171.5340860  93.4988590  34.3612220
 171.0276550  94.4026260  33.2573130 170.4249540  95.8503250  32.8109700
 169.8566440  95.4021500  32.1845610 171.1338540  96.2096030  32.2774850
 171.6515860  96.5991810  42.1685050 172.0185990  96.1250380  42.9146390
 171.4620920  97.4733380  42.5093390 164.5156350  91.3435500  38.2978520
 164.2303270  90.9791170  39.1357140 164.4535210  90.6115960  37.6841660
 169.4415230  95.6400450  44.4869260 169.1372300  96.5192430  44.7119620
 170.3961690  95.7000240  44.5226700 174.1894940  90.2364760  35.0191890
 173.3759550  89.7377930  34.9437200 173.9956890  91.0763010  34.6028240
 165.4978960  96.4803190  45.6340620 165.1393900  97.1457040  46.2213960
 165.2033520  95.6486740  46.0053240 168.6992080  96.9387430  48.5180170
 168.3992220  97.0844610  47.6207990 169.4703320  96.3792720  48.4253560
 164.0087010  96.4794450  32.2575220 164.8781860  96.7619250  32.5411140
 163.5177330  97.2930320  32.1424030 171.1721820  97.8667660  36.3783500
 171.6284600  98.6772910  36.6043690 170.8210030  97.5490800  37.2101990
 167.0733600  88.2105310  36.8506020 166.9448230  88.2023210  37.7990940
 166.2495620  88.5488400  36.4997030 164.0727530  89.9696430  46.3112720
 163.3586050  90.1693350  46.9165330 164.4922570  89.1936000  46.6827520
 170.9012370  93.6961630  36.2859610 170.1928520  94.1647970  36.7273220
 171.1856850  93.0383640  36.9204800 172.5268300  95.1158330  44.2852140
 173.0253550  95.5904150  44.9503990 172.6691250  94.1921850  44.4922170
 169.1047390  92.0046710  33.6610320 169.9537920  92.4416860  33.5950510
 168.7378660  92.3166970  34.4882380 168.0038810  98.2579070  32.1345850
 168.7702080  98.1460430  32.6971280 168.0813500  97.5617040  31.4822620
 166.6985570  95.6904140  32.8178740 166.7789160  94.7431650  32.9296140
 167.5905320  96.0211020  32.9239400 164.2256370  97.5119060  48.0534910
 164.7295390  96.9326340  48.6251140 163.4863790  97.7959290  48.5911280
 166.2579450  95.6548650  48.9484980 166.2984790  95.3562520  49.8570210
 167.1124950  96.0556260  48.7892500 170.0357840  98.2544200  34.1088490
 170.4574260  98.0884070  34.9519880 170.1608680  97.4444430  33.6143630
 168.1985260  94.2340750  46.9159470 167.6681720  93.7431700  46.2882810
 168.8673330  94.6624950  46.3817400 172.5485480  97.2781810  31.3565590
 173.0691140  96.5630830  30.9906740 173.1953880  97.9167680  31.6566100
 168.6857560  91.2003120  46.9956760 168.5914430  90.5823870  46.2707630
 168.1054950  91.9269410  46.7686670 171.4519000  89.7576360  44.0284150
 171.0036300  89.7800620  43.1829700 170.8184200  89.3595380  44.6254450
 168.9316740  94.3277430  31.0546650 168.7305800  93.4644790  31.4159990
 168.7608790  94.2410790  30.1168250 170.9611220  92.9268220  47.2910250
 171.5510910  92.6184070  47.9788070 170.1431460  92.4547970  47.4470150
 167.7299540  91.4278050  31.0424530 168.0325440  91.4345480  30.1343680
 168.4694130  91.0775910  31.5392190 170.9484470  90.3712670  32.0280730
 170.6006470  89.6936660  31.4483180 171.1497240  89.9102180  32.8424120
 164.2890110  96.9000320  38.4245100 163.6338950  96.6311960  37.7804800
 165.1268060  96.7904800  37.9747080 165.3266040  97.2852890  42.9648440
 165.6939080  97.1980290  43.8444460 164.7576860  96.5219440  42.8655300
 164.8782040  94.1961980  46.8706860 163.9838090  94.1628740  47.2100570
 165.4179590  94.3948770  47.6358110 163.5028190  94.1099250  34.3670430
 162.5992270  94.3729450  34.1922090 163.9868810  94.3810420  33.5870390
 166.0455400  93.1664790  32.2764810 166.7547100  92.7448010  31.7912090
 165.3295340  93.2340020  31.6448160 165.6929560  89.2204120  31.3167460
 166.4157690  89.7613060  31.6348680 165.9654080  88.9467540  30.4409000
 165.3821750  88.4710310  41.2190080 166.0297940  87.9207690  40.7785240
 165.8023590  88.7253460  42.0405890 165.1353750  88.6265980  43.9615400
 164.7868570  89.0829800  44.7273580 164.8041450  87.7323110  44.0437830
 172.6478570  89.8177860  47.4834820 172.5867460  90.4099690  48.2330230
 173.5878950  89.7103820  47.3385080 165.8074390  88.1542180  47.2366170
 166.3557380  87.9730230  46.4732280 165.8729700  87.3636290  47.7722480
 173.7735990  88.9549900  42.3889310 172.9907780  89.4295400  42.6686070
 173.4798920  88.0504730  42.2802490 165.1176400  89.2597380  34.9103030
 165.8755760  89.3726260  34.3367060 164.6553570  90.0966580  34.8646460
 171.6590210  91.3736650  37.9005340 170.8464720  90.9993540  37.5601220
 172.1631850  90.6181730  38.2026530 167.4901550  89.7861430  33.4505000
 168.0194310  88.9991230  33.3212950 168.1229870  90.4652620  33.6840530
 169.6839390  89.5236570  36.5050390 169.0542130  88.8223880  36.6720520
 169.1444530  90.2840700  36.2883550 169.8094950  88.8020550  48.9402880
 169.5279220  89.3054150  48.1763700 170.1914650  88.0042300  48.5745010
 173.4486600  98.0145620  21.7627360 172.6728700  97.5346060  22.0525930
 174.0999530  97.3351270  21.5883520 167.4652430  98.3265430  22.6403120
 166.6337310  98.0714140  23.0399630 168.0733410  98.3976200  23.3761040
 165.8744380  93.2867320  16.4245510 164.9861080  93.6283290  16.3225390
 166.1585570  93.0867640  15.5326340 163.8377390  95.8872970  22.3085210
 164.4093500  95.1195170  22.3088850 163.8378930  96.1861730  21.3991820
 165.0802260  91.2957330  24.0954140 164.9005100  90.3983080  24.3756900
 164.6782340  91.8429200  24.7701090 173.9200760  93.4973190  21.9966450
 174.2965580  92.6245070  21.8840120 173.8220270  93.8331890  21.1056890
 168.0505770  91.8698820  17.4583890 168.1572520  92.7702550  17.7652650
 167.1398130  91.8216790  17.1678540 165.6988930  93.7917830  22.7036480
 166.3799040  94.0556200  23.3223880 165.3836980  92.9518700  23.0374490
 169.8913500  94.8385190  21.7909070 170.3991720  95.3366160  22.4314090
 170.4226740  94.0620390  21.6148430 168.1749600  89.4783750  26.0572490
 168.1768040  89.9956140  25.2518390 167.3453910  89.0013930  26.0342420
 167.8564930  91.1893710  24.0642940 168.1981740  92.0335760  23.7696810
 166.9180740  91.3377450  24.1808280 171.5392820  88.6775980  20.3887530
 171.8467800  88.1222870  19.6723030 170.6093520  88.8120440  20.2060520
 173.9273580  96.7424810  17.1247650 173.0002860  96.6762190  17.3536120
 174.0798400  97.6804940  17.0102890 173.9142660  93.0141810  14.1214810
 172.9746330  93.1755770  14.2067270 174.2325920  93.7327490  13.5750800
 169.5330220  97.2689550  19.9067380 169.1287220  96.5566800  19.4113280
 169.6193340  96.9242790  20.7955420 168.2458840  94.0432760  23.6866420
 168.7973430  94.1528100  22.9119670 168.7602350  94.4170360  24.4021650
 167.9201570  97.5652120  27.2971760 167.7809340  98.4374920  27.6659160
 167.0382930  97.2224930  27.1519700 166.2334850  96.1634530  17.4074030
 166.1132450  96.8896620  16.7955300 165.9235740  95.3937440  16.9301940
 168.6998510  89.5069600  20.7897700 168.2566660  90.2879140  20.4582220
 169.2583500  89.8299490  21.4968640 172.9868320  92.3738120  26.3933020
 172.5247690  92.5821140  27.2052960 172.5846430  91.5597470  26.0903690
 171.8157330  89.1280300  15.6703530 171.1911510  89.1240170  16.3956840
 171.7287450  88.2611260  15.2739500 170.7374410  90.0516930  22.6487300
 171.0346740  90.9579760  22.5679320 171.2859970  89.5635710  22.0346870
 168.4912730  94.6303170  18.5178950 168.2653650  94.4140340  19.4225570
 167.7105260  95.0631630  18.1724920 170.9311940  95.5288750  29.1839220
 170.8355540  94.5883480  29.0339620 171.7743920  95.7503820  28.7887290
 174.3275360  93.2730080  19.1472880 174.7204930  93.5902280  18.3341570
 174.6892210  92.3941960  19.2617400 166.0622480  91.9402420  27.3373000
 165.6685870  92.7877630  27.5445780 165.3740880  91.3028790  27.5281640
 172.6367530  92.0237390  30.4069740 171.9465850  91.8309590  31.0415830
 173.3799830  92.3072030  30.9394040 163.3639530  89.8630880  21.3703080
 163.0752580  90.4333740  22.0828060 164.1085290  89.3835330  21.7334310
 163.5509760  93.8051000  12.5805800 163.4684430  94.7481760  12.7220790
 163.1992820  93.6625910  11.7018150 171.3507890  92.5390030  21.6476150
 171.3543950  92.0979980  20.7980690 172.2459010  92.8607360  21.7547970
 167.2010270  92.4216520  20.6070360 166.8610320  92.8991750  21.3637410
 166.4387590  91.9681640  20.2471460 171.4128040  93.5402110  14.6382910
 171.5340860  93.4988590  15.5868730 171.0276550  94.4026260  14.4829640
 170.4249540  95.8503250  14.0366210 169.8566440  95.4021500  13.4102120
 171.1338540  96.2096030  13.5031360 171.6515860  96.5991810  23.3941560
 172.0185990  96.1250380  24.1402900 171.4620920  97.4733380  23.7349900
 164.5156350  91.3435500  19.5235030 164.2303270  90.9791170  20.3613650
 164.4535210  90.6115960  18.9098170 169.4415230  95.6400450  25.7125770
 169.1372300  96.5192430  25.9376130 170.3961690  95.7000240  25.7483210
 174.1894940  90.2364760  16.2448400 173.3759550  89.7377930  16.1693710
 173.9956890  91.0763010  15.8284750 165.4978960  96.4803190  26.8597130
 165.1393900  97.1457040  27.4470470 165.2033520  95.6486740  27.2309750
 168.6992080  96.9387430  29.7436680 168.3992220  97.0844610  28.8464500
 169.4703320  96.3792720  29.6510070 164.0087010  96.4794450  13.4831730
 164.8781860  96.7619250  13.7667650 163.5177330  97.2930320  13.3680540
 171.1721820  97.8667660  17.6040010 171.6284600  98.6772910  17.8300200
 170.8210030  97.5490800  18.4358500 167.0733600  88.2105310  18.0762530
 166.9448230  88.2023210  19.0247450 166.2495620  88.5488400  17.7253540
 164.0727530  89.9696430  27.5369230 163.3586050  90.1693350  28.1421840
 164.4922570  89.1936000  27.9084030 170.9012370  93.6961630  17.5116120
 170.1928520  94.1647970  17.9529730 171.1856850  93.0383640  18.1461310
 172.5268300  95.1158330  25.5108650 173.0253550  95.5904150  26.1760500
 172.6691250  94.1921850  25.7178680 169.1047390  92.0046710  14.8866830
 169.9537920  92.4416860  14.8207020 168.7378660  92.3166970  15.7138890
 168.0038810  98.2579070  13.3602360 168.7702080  98.1460430  13.9227790
 168.0813500  97.5617040  12.7079130 166.6985570  95.6904140  14.0435250
 166.7789160  94.7431650  14.1552650 167.5905320  96.0211020  14.1495910
 164.2256370  97.5119060  29.2791420 164.7295390  96.9326340  29.8507650
 163.4863790  97.7959290  29.8167790 166.2579450  95.6548650  30.1741490
 166.2984790  95.3562520  31.0826720 167.1124950  96.0556260  30.0149010
 170.0357840  98.2544200  15.3345000 170.4574260  98.0884070  16.1776390
 170.1608680  97.4444430  14.8400140 168.1985260  94.2340750  28.1415980
 167.6681720  93.7431700  27.5139320 168.8673330  94.6624950  27.6073910
 172.5485480  97.2781810  12.5822100 173.0691140  96.5630830  12.2163250
 173.1953880  97.9167680  12.8822610 168.6857560  91.2003120  28.2213270
 168.5914430  90.5823870  27.4964140 168.1054950  91.9269410  27.9943180
 171.4519000  89.7576360  25.2540660 171.0036300  89.7800620  24.4086210
 170.8184200  89.3595380  25.8510960 168.9316740  94.3277430  12.2803160
 168.7305800  93.4644790  12.6416500 168.7608790  94.2410790  11.3424760
 170.9611220  92.9268220  28.5166760 171.5510910  92.6184070  29.2044580
 170.1431460  92.4547970  28.6726660 167.7299540  91.4278050  12.2681040
 168.0325440  91.4345480  11.3600190 168.4694130  91.0775910  12.7648700
 170.9484470  90.3712670  13.2537240 170.6006470  89.6936660  12.6739690
 171.1497240  89.9102180  14.0680630 164.2890110  96.9000320  19.6501610
 163.6338950  96.6311960  19.0061310 165.1268060  96.7904800  19.2003590
 165.3266040  97.2852890  24.1904950 165.6939080  97.1980290  25.0700970
 164.7576860  96.5219440  24.0911810 164.8782040  94.1961980  28.0963370
 163.9838090  94.1628740  28.4357080 165.4179590  94.3948770  28.8614620
 163.5028190  94.1099250  15.5926940 162.5992270  94.3729450  15.4178600
 163.9868810  94.3810420  14.8126900 166.0455400  93.1664790  13.5021320
 166.7547100  92.7448010  13.0168600 165.3295340  93.2340020  12.8704670
 165.6929560  89.2204120  12.5423970 166.4157690  89.7613060  12.8605190
 165.9654080  88.9467540  11.6665510 165.3821750  88.4710310  22.4446590
 166.0297940  87.9207690  22.0041750 165.8023590  88.7253460  23.2662400
 165.1353750  88.6265980  25.1871910 164.7868570  89.0829800  25.9530090
 164.8041450  87.7323110  25.2694340 172.6478570  89.8177860  28.7091330
 172.5867460  90.4099690  29.4586740 173.5878950  89.7103820  28.5641590
 165.8074390  88.1542180  28.4622680 166.3557380  87.9730230  27.6988790
 165.8729700  87.3636290  28.9978990 173.7735990  88.9549900  23.6145820
 172.9907780  89.4295400  23.8942580 173.4798920  88.0504730  23.5059000
 165.1176400  89.2597380  16.1359540 165.8755760  89.3726260  15.5623570
 164.6553570  90.0966580  16.0902970 171.6590210  91.3736650  19.1261850
 170.8464720  90.9993540  18.7857730 172.1631850  90.6181730  19.4283040
 167.4901550  89.7861430  14.6761510 168.0194310  88.9991230  14.5469460
 168.1229870  90.4652620  14.9097040 169.6839390  89.5236570  17.7306900
 169.0542130  88.8223880  17.8977030 169.1444530  90.2840700  17.5140060
 169.8094950  88.8020550  30.1659390 169.5279220  89.3054150  29.4020210
 170.1914650  88.0042300  29.8001520 173.4486600  98.0145620   2.9883870
 172.6728700  97.5346060   3.2782440 174.0999530  97.3351270   2.8140030
 167.4652430  98.3265430   3.8659630 166.6337310  98.0714140   4.2656140
 168.0733410  98.3976200   4.6017550 163.8377390  95.8872970   3.5341720
 164.4093500  95.1195170   3.5345360 163.8378930  96.1861730   2.6248330
 165.0802260  91.2957330   5.3210650 164.9005100  90.3983080   5.6013410
 164.6782340  91.8429200   5.9957600 173.9200760  93.4973190   3.2222960
 174.2965580  92.6245070   3.1096630 173.8220270  93.8331890   2.3313400
 165.6988930  93.7917830   3.9292990 166.3799040  94.0556200   4.5480390
 165.3836980  92.9518700   4.2631000 169.8913500  94.8385190   3.0165580
 170.3991720  95.3366160   3.6570600 170.4226740  94.0620390   2.8404940
 168.1749600  89.4783750   7.2829000 168.1768040  89.9956140   6.4774900
 167.3453910  89.0013930   7.2598930 167.8564930  91.1893710   5.2899450
 168.1981740  92.0335760   4.9953320 166.9180740  91.3377450   5.4064790
 168.2458840  94.0432760   4.9122930 168.7973430  94.1528100   4.1376180
 168.7602350  94.4170360   5.6278160 167.9201570  97.5652120   8.5228270
 167.7809340  98.4374920   8.8915670 167.0382930  97.2224930   8.3776210
 168.6998510  89.5069600   2.0154210 168.2566660  90.2879140   1.6838730
 169.2583500  89.8299490   2.7225150 172.9868320  92.3738120   7.6189530
 172.5247690  92.5821140   8.4309470 172.5846430  91.5597470   7.3160200
 170.7374410  90.0516930   3.8743810 171.0346740  90.9579760   3.7935830
 171.2859970  89.5635710   3.2603380 170.9311940  95.5288750  10.4095730
 170.8355540  94.5883480  10.2596130 171.7743920  95.7503820  10.0143800
 166.0622480  91.9402420   8.5629510 165.6685870  92.7877630   8.7702290
 165.3740880  91.3028790   8.7538150 172.6367530  92.0237390  11.6326250
 171.9465850  91.8309590  12.2672340 173.3799830  92.3072030  12.1650550
 163.3639530  89.8630880   2.5959590 163.0752580  90.4333740   3.3084570
 164.1085290  89.3835330   2.9590820 171.3507890  92.5390030   2.8732660
 171.3543950  92.0979980   2.0237200 172.2459010  92.8607360   2.9804480
 167.2010270  92.4216520   1.8326870 166.8610320  92.8991750   2.5893920
 166.4387590  91.9681640   1.4727970 171.6515860  96.5991810   4.6198070
 172.0185990  96.1250380   5.3659410 171.4620920  97.4733380   4.9606410
 169.4415230  95.6400450   6.9382280 169.1372300  96.5192430   7.1632640
 170.3961690  95.7000240   6.9739720 165.4978960  96.4803190   8.0853640
 165.1393900  97.1457040   8.6726980 165.2033520  95.6486740   8.4566260
 168.6992080  96.9387430  10.9693190 168.3992220  97.0844610  10.0721010
 169.4703320  96.3792720  10.8766580 164.0727530  89.9696430   8.7625740
 163.3586050  90.1693350   9.3678350 164.4922570  89.1936000   9.1340540
 172.5268300  95.1158330   6.7365160 173.0253550  95.5904150   7.4017010
 172.6691250  94.1921850   6.9435190 164.2256370  97.5119060  10.5047930
 164.7295390  96.9326340  11.0764160 163.4863790  97.7959290  11.0424300
 166.2579450  95.6548650  11.3998000 166.2984790  95.3562520  12.3083230
 167.1124950  96.0556260  11.2405520 168.1985260  94.2340750   9.3672490
 167.6681720  93.7431700   8.7395830 168.8673330  94.6624950   8.8330420
 168.6857560  91.2003120   9.4469780 168.5914430  90.5823870   8.7220650
 168.1054950  91.9269410   9.2199690 171.4519000  89.7576360   6.4797170
 171.0036300  89.7800620   5.6342720 170.8184200  89.3595380   7.0767470
 170.9611220  92.9268220   9.7423270 171.5510910  92.6184070  10.4301090
 170.1431460  92.4547970   9.8983170 165.3266040  97.2852890   5.4161460
 165.6939080  97.1980290   6.2957480 164.7576860  96.5219440   5.3168320
 164.8782040  94.1961980   9.3219880 163.9838090  94.1628740   9.6613590
 165.4179590  94.3948770  10.0871130 165.3821750  88.4710310   3.6703100
 166.0297940  87.9207690   3.2298260 165.8023590  88.7253460   4.4918910
 165.1353750  88.6265980   6.4128420 164.7868570  89.0829800   7.1786600
 164.8041450  87.7323110   6.4950850 172.6478570  89.8177860   9.9347840
 172.5867460  90.4099690  10.6843250 173.5878950  89.7103820   9.7898100
 165.8074390  88.1542180   9.6879190 166.3557380  87.9730230   8.9245300
 165.8729700  87.3636290  10.2235500 173.7735990  88.9549900   4.8402330
 172.9907780  89.4295400   5.1199090 173.4798920  88.0504730   4.7315510
 169.8094950  88.8020550  11.3915900 169.5279220  89.3054150  10.6276720
 170.1914650  88.0042300  11.0258030 173.4486600  79.2402130  59.3114340
 172.6728700  78.7602570  59.6012910 174.0999530  78.5607780  59.1370500
 165.8744380  74.5123830  53.9732490 164.9861080  74.8539800  53.8712370
 166.1585570  74.3124150  53.0813320 163.8377390  77.1129480  59.8572190
 164.4093500  76.3451680  59.8575830 163.8378930  77.4118240  58.9478800
 173.6957340  85.9320330  57.7117460 173.0768780  86.3877830  57.1411900
 174.5509120  86.0871790  57.3107160 172.8895590  81.9159320  59.3184500
 172.8203870  80.9749260  59.1573630 173.6515450  82.0060730  59.8907070
 173.9200760  74.7229700  59.5453430 174.2965580  73.8501580  59.4327100
 173.8220270  75.0588400  58.6543870 168.0505770  73.0955330  55.0070870
 168.1572520  73.9959060  55.3139630 167.1398130  73.0473300  54.7165520
 169.8913500  76.0641700  59.3396050 170.3991720  76.5622670  59.9801070
 170.4226740  75.2876900  59.1635410 163.9303890  81.5016100  52.4789000
 163.5531870  81.9903200  51.7473900 164.1876960  82.1741380  53.1095530
 171.5392820  69.9032490  57.9374510 171.8467800  69.3479380  57.2210010
 170.6093520  70.0376950  57.7547500 173.9273580  77.9681320  54.6734630
 173.0002860  77.9018700  54.9023100 174.0798400  78.9061450  54.5589870
 173.9142660  74.2398320  51.6701790 172.9746330  74.4012280  51.7554250
 174.2325920  74.9584000  51.1237780 169.5330220  78.4946060  57.4554360
 169.1287220  77.7823310  56.9600260 169.6193340  78.1499300  58.3442400
 170.0011920  82.1813620  59.6193570 169.7040210  81.5759090  58.9401350
 170.9511740  82.2190930  59.5082930 174.2430950  83.7084500  56.1523870
 174.6826860  84.4508830  55.7379260 174.1817840  83.9511070  57.0762830
 166.2334850  77.3891040  54.9561010 166.1132450  78.1153130  54.3442280
 165.9235740  76.6193950  54.4788920 165.1167850  82.2606370  57.1735830
 164.7095930  82.4020960  56.3189430 166.0080860  81.9766530  56.9707040
 169.3889510  86.4752150  55.2858500 169.2131990  85.5587690  55.0726300
 168.5345250  86.8339440  55.5256300 168.6998510  70.7326110  58.3384680
 168.2566660  71.5135650  58.0069200 169.2583500  71.0556000  59.0455620
 171.8157330  70.3536810  53.2190510 171.1911510  70.3496680  53.9443820
 171.7287450  69.4867770  52.8226480 170.7374410  71.2773440  60.1974280
 171.0346740  72.1836270  60.1166300 171.2859970  70.7892220  59.5833850
 168.4912730  75.8559680  56.0665930 168.2653650  75.6396850  56.9712550
 167.7105260  76.2888140  55.7211900 174.3275360  74.4986590  56.6959860
 174.7204930  74.8158790  55.8828550 174.6892210  73.6198470  56.8104380
 163.3639530  71.0887390  58.9190060 163.0752580  71.6590250  59.6315040
 164.1085290  70.6091840  59.2821290 163.5509760  75.0307510  50.1292780
 163.4684430  75.9738270  50.2707770 163.1992820  74.8882420  49.2505130
 171.3507890  73.7646540  59.1963130 171.3543950  73.3236490  58.3467670
 172.2459010  74.0863870  59.3034950 167.2010270  73.6473030  58.1557340
 166.8610320  74.1248260  58.9124390 166.4387590  73.1938150  57.7958440
 171.4128040  74.7658620  52.1869890 171.5340860  74.7245100  53.1355710
 171.0276550  75.6282770  52.0316620 170.4249540  77.0759760  51.5853190
 169.8566440  76.6278010  50.9589100 171.1338540  77.4352540  51.0518340
 164.5156350  72.5692010  57.0722010 164.2303270  72.2047680  57.9100630
 164.4535210  71.8372470  56.4585150 167.9697020  81.0717950  53.8579600
 167.1959280  80.5315570  53.6978320 168.6991650  80.5524560  53.5197360
 174.1894940  71.4621270  53.7935380 173.3759550  70.9634440  53.7180690
 173.9956890  72.3019520  53.3771730 168.0134420  80.7398330  57.4958410
 168.5313090  79.9366590  57.4415300 167.5618440  80.6777470  58.3375240
 172.9003920  82.0064610  52.7685710 173.2419620  82.7506840  52.2729030
 172.0716630  82.3195730  53.1310540 171.8694610  82.0878140  55.5401630
 172.5565740  82.6347350  55.9209220 171.0827030  82.6318870  55.5751240
 164.0087010  77.7050960  51.0318710 164.8781860  77.9875760  51.3154630
 163.5177330  78.5186830  50.9167520 171.1721820  79.0924170  55.1526990
 171.6284600  79.9029420  55.3787180 170.8210030  78.7747310  55.9845480
 167.0733600  69.4361820  55.6249510 166.9448230  69.4279720  56.5734430
 166.2495620  69.7744910  55.2740520 164.3758260  86.9178340  51.5980340
 164.7355900  87.5167680  50.9437610 164.2350600  87.4638230  52.3715370
 170.3926880  84.3009540  52.4154010 170.3836980  85.0339230  51.7998520
 169.4725240  84.0541120  52.5080970 165.9933520  79.5224430  53.1600770
 165.3861470  80.2623330  53.1696070 166.4682870  79.6123790  52.3338970
 173.3786480  84.3637780  51.0779200 173.4798460  84.1601770  50.1481180
 172.4788220  84.1096060  51.2826980 170.9012370  74.9218140  55.0603100
 170.1928520  75.3904480  55.5016710 171.1856850  74.2640150  55.6948290
 172.0204590  86.8824100  55.7726870 172.2746090  86.8445490  54.8506240
 171.0717070  86.7557430  55.7655120 169.1047390  73.2303220  52.4353810
 169.9537920  73.6673370  52.3694000 168.7378660  73.5423480  53.2625870
 168.0038810  79.4835580  50.9089340 168.7702080  79.3716940  51.4714770
 168.0813500  78.7873550  50.2566110 166.6985570  76.9160650  51.5922230
 166.7789160  75.9688160  51.7039630 167.5905320  77.2467530  51.6982890
 167.5000280  87.0656040  58.6956770 168.2362760  86.5171500  58.9665340
 167.8841200  87.9312050  58.5562760 164.3845760  83.1329610  54.5698280
 163.4585540  83.3750750  54.5603690 164.8502190  83.9603870  54.4483030
 170.6102590  86.2386350  50.5182340 171.4031200  86.5275180  50.0664130
 170.0906940  85.8078520  49.8394820 171.1279990  81.4589760  50.3824690
 171.0230630  80.8442110  51.1086070 170.9604210  80.9355650  49.5987700
 170.0357840  79.4800710  52.8831980 170.4574260  79.3140580  53.7263370
 170.1608680  78.6700940  52.3887120 172.5485480  78.5038320  50.1309080
 173.0691140  77.7887340  49.7650230 173.1953880  79.1424190  50.4309590
 168.9316740  75.5533940  49.8290140 168.7305800  74.6901300  50.1903480
 168.7608790  75.4667300  48.8911740 167.7299540  72.6534560  49.8168020
 168.0325440  72.6601990  48.9087170 168.4694130  72.3032420  50.3135680
 170.9484470  71.5969180  50.8024220 170.6006470  70.9193170  50.2226670
 171.1497240  71.1358690  51.6167610 173.1133510  86.5849930  52.4210820
 174.0084300  86.9234900  52.4429580 173.1451140  85.8629340  51.7935100
 166.7529670  81.9576980  50.6497820 167.1904540  82.5006650  51.3055400
 167.2377400  81.1323930  50.6594160 163.9675470  84.7466010  58.1018080
 164.2978480  83.8787070  57.8696720 164.3966470  84.9524530  58.9323040
 168.5637390  83.0775020  55.7620050 168.2632930  82.9539990  56.6623960
 168.4574880  82.2183610  55.3535780 164.2890110  78.1256830  57.1988590
 163.6338950  77.8568470  56.5548290 165.1268060  78.0161310  56.7490570
 163.5028190  75.3355760  53.1413920 162.5992270  75.5985960  52.9665580
 163.9868810  75.6066930  52.3613880 166.0455400  74.3921300  51.0508300
 166.7547100  73.9704520  50.5655580 165.3295340  74.4596530  50.4191650
 165.6929560  70.4460630  50.0910950 166.4157690  70.9869570  50.4092170
 165.9654080  70.1724050  49.2152490 169.8163480  85.5507720  59.7567310
 170.3328500  84.9395080  59.2315570 170.4660860  86.0536500  60.2478320
 164.4948380  86.6537110  56.1814660 164.3270420  86.0207790  56.8796550
 163.6282890  86.8596510  55.8308850 165.1176400  70.4853890  53.6846520
 165.8755760  70.5982770  53.1110550 164.6553570  71.3223090  53.6389950
 171.6590210  72.5993160  56.6748830 170.8464720  72.2250050  56.3344710
 172.1631850  71.8438240  56.9770020 166.1011080  85.3470340  53.6264800
 165.5758700  85.7278370  52.9226760 166.0255660  85.9721110  54.3474510
 167.4901550  71.0117940  52.2248490 168.0194310  70.2247740  52.0956440
 168.1229870  71.6909130  52.4584020 169.6839390  70.7493080  55.2793880
 169.0542130  70.0480390  55.4464010 169.1444530  71.5097210  55.0627040
 168.7004050  87.2952720  52.5014050 169.4322870  87.0112000  51.9537940
 168.9597720  87.0566000  53.3913430 167.8618840  83.4117450  52.5060380
 167.2327720  83.8802550  53.0546210 167.9766670  82.5666670  52.9406570
 173.4486600  79.2402130  40.5370850 172.6728700  78.7602570  40.8269420
 174.0999530  78.5607780  40.3627010 167.4652430  79.5521940  41.4146610
 166.6337310  79.2970650  41.8143120 168.0733410  79.6232710  42.1504530
 167.4453690  83.5862030  41.6104630 167.7481730  82.6959770  41.4314850
 168.1897280  84.1432250  41.3826880 165.8744380  74.5123830  35.1989000
 164.9861080  74.8539800  35.0968880 166.1585570  74.3124150  34.3069830
 163.8377390  77.1129480  41.0828700 164.4093500  76.3451680  41.0832340
 163.8378930  77.4118240  40.1735310 173.6957340  85.9320330  38.9373970
 173.0768780  86.3877830  38.3668410 174.5509120  86.0871790  38.5363670
 172.8895590  81.9159320  40.5441010 172.8203870  80.9749260  40.3830140
 173.6515450  82.0060730  41.1163580 165.0802260  72.5213840  42.8697630
 164.9005100  71.6239590  43.1500390 164.6782340  73.0685710  43.5444580
 173.9200760  74.7229700  40.7709940 174.2965580  73.8501580  40.6583610
 173.8220270  75.0588400  39.8800380 168.0505770  73.0955330  36.2327380
 168.1572520  73.9959060  36.5396140 167.1398130  73.0473300  35.9422030
 165.6988930  75.0174340  41.4779970 166.3799040  75.2812710  42.0967370
 165.3836980  74.1775210  41.8117980 169.8913500  76.0641700  40.5652560
 170.3991720  76.5622670  41.2057580 170.4226740  75.2876900  40.3891920
 168.1749600  70.7040260  44.8315980 168.1768040  71.2212650  44.0261880
 167.3453910  70.2270440  44.8085910 169.4252450  80.3435440  43.0089480
 169.0921830  80.9704360  43.6510550 169.6019130  80.8697320  42.2291150
 167.8564930  72.4150220  42.8386430 168.1981740  73.2592270  42.5440300
 166.9180740  72.5633960  42.9551770 168.6371550  82.3116240  44.8238660
 169.2545550  82.9867320  44.5423110 167.7764670  82.7204220  44.7326160
 163.9303890  81.5016100  33.7045510 163.5531870  81.9903200  32.9730410
 164.1876960  82.1741380  34.3352040 171.5392820  69.9032490  39.1631020
 171.8467800  69.3479380  38.4466520 170.6093520  70.0376950  38.9804010
 173.9273580  77.9681320  35.8991140 173.0002860  77.9018700  36.1279610
 174.0798400  78.9061450  35.7846380 173.9142660  74.2398320  32.8958300
 172.9746330  74.4012280  32.9810760 174.2325920  74.9584000  32.3494290
 169.5330220  78.4946060  38.6810870 169.1287220  77.7823310  38.1856770
 169.6193340  78.1499300  39.5698910 170.0011920  82.1813620  40.8450080
 169.7040210  81.5759090  40.1657860 170.9511740  82.2190930  40.7339440
 168.2458840  75.2689270  42.4609910 168.7973430  75.3784610  41.6863160
 168.7602350  75.6426870  43.1765140 169.0930350  81.9195310  47.4957880
 168.1958880  82.1435280  47.7431280 169.1183220  82.0430250  46.5469280
 167.9201570  78.7908630  46.0715250 167.7809340  79.6631430  46.4402650
 167.0382930  78.4481440  45.9263190 174.2430950  83.7084500  37.3780380
 174.6826860  84.4508830  36.9635770 174.1817840  83.9511070  38.3019340
 169.7181920  84.7330330  48.2800400 169.6897350  85.1373280  47.4128830
 169.5546890  83.8040690  48.1172000 166.2334850  77.3891040  36.1817520
 166.1132450  78.1153130  35.5698790 165.9235740  76.6193950  35.7045430
 163.8720220  80.5606180  41.9886160 163.9500640  80.6954950  41.0441880
 164.4861900  79.8522070  42.1814280 165.1167850  82.2606370  38.3992340
 164.7095930  82.4020960  37.5445940 166.0080860  81.9766530  38.1963550
 169.3889510  86.4752150  36.5115010 169.2131990  85.5587690  36.2982810
 168.5345250  86.8339440  36.7512810 163.9279740  81.6020350  44.5280620
 164.0910780  81.1325710  43.7099990 164.3932190  81.0943910  45.1929460
 168.6998510  70.7326110  39.5641190 168.2566660  71.5135650  39.2325710
 169.2583500  71.0556000  40.2712130 172.9868320  73.5994630  45.1676510
 172.5247690  73.8077650  45.9796450 172.5846430  72.7853980  44.8647180
 171.8157330  70.3536810  34.4447020 171.1911510  70.3496680  35.1700330
 171.7287450  69.4867770  34.0482990 170.7374410  71.2773440  41.4230790
 171.0346740  72.1836270  41.3422810 171.2859970  70.7892220  40.8090360
 168.4912730  75.8559680  37.2922440 168.2653650  75.6396850  38.1969060
 167.7105260  76.2888140  36.9468410 170.9311940  76.7545260  47.9582710
 170.8355540  75.8139990  47.8083110 171.7743920  76.9760330  47.5630780
 174.3275360  74.4986590  37.9216370 174.7204930  74.8158790  37.1085060
 174.6892210  73.6198470  38.0360890 166.0622480  73.1658930  46.1116490
 165.6685870  74.0134140  46.3189270 165.3740880  72.5285300  46.3025130
 172.6367530  73.2493900  49.1813230 171.9465850  73.0566100  49.8159320
 173.3799830  73.5328540  49.7137530 163.3639530  71.0887390  40.1446570
 163.0752580  71.6590250  40.8571550 164.1085290  70.6091840  40.5077800
 163.5509760  75.0307510  31.3549290 163.4684430  75.9738270  31.4964280
 163.1992820  74.8882420  30.4761640 171.3507890  73.7646540  40.4219640
 171.3543950  73.3236490  39.5724180 172.2459010  74.0863870  40.5291460
 167.2010270  73.6473030  39.3813850 166.8610320  74.1248260  40.1380900
 166.4387590  73.1938150  39.0214950 171.4128040  74.7658620  33.4126400
 171.5340860  74.7245100  34.3612220 171.0276550  75.6282770  33.2573130
 170.4249540  77.0759760  32.8109700 169.8566440  76.6278010  32.1845610
 171.1338540  77.4352540  32.2774850 165.5018720  80.9771780  46.6876430
 165.1173510  80.3365450  47.2859390 165.8130910  81.6807900  47.2571160
 171.6515860  77.8248320  42.1685050 172.0185990  77.3506890  42.9146390
 171.4620920  78.6989890  42.5093390 164.5156350  72.5692010  38.2978520
 164.2303270  72.2047680  39.1357140 164.4535210  71.8372470  37.6841660
 169.4415230  76.8656960  44.4869260 169.1372300  77.7448940  44.7119620
 170.3961690  76.9256750  44.5226700 167.9697020  81.0717950  35.0836110
 167.1959280  80.5315570  34.9234830 168.6991650  80.5524560  34.7453870
 174.1894940  71.4621270  35.0191890 173.3759550  70.9634440  34.9437200
 173.9956890  72.3019520  34.6028240 174.1103800  80.1392370  46.7631500
 174.0441110  79.2188040  46.5089090 173.4808940  80.2367810  47.4776140
 168.0134420  80.7398330  38.7214920 168.5313090  79.9366590  38.6671810
 167.5618440  80.6777470  39.5631750 172.9003920  82.0064610  33.9942220
 173.2419620  82.7506840  33.4985540 172.0716630  82.3195730  34.3567050
 165.4978960  77.7059700  45.6340620 165.1393900  78.3713550  46.2213960
 165.2033520  76.8743250  46.0053240 168.6992080  78.1643940  48.5180170
 168.3992220  78.3101120  47.6207990 169.4703320  77.6049230  48.4253560
 174.0420530  82.9612940  46.5135300 174.0565070  82.0293900  46.2954210
 173.3345630  83.0472700  47.1525070 171.8694610  82.0878140  36.7658140
 172.5565740  82.6347350  37.1465730 171.0827030  82.6318870  36.8007750
 164.0087010  77.7050960  32.2575220 164.8781860  77.9875760  32.5411140
 163.5177330  78.5186830  32.1424030 171.1721820  79.0924170  36.3783500
 171.6284600  79.9029420  36.6043690 170.8210030  78.7747310  37.2101990
 173.4754430  84.6030510  43.6075800 174.1196650  84.8089890  44.2849220
 173.8383870  83.8418910  43.1546650 167.0733600  69.4361820  36.8506020
 166.9448230  69.4279720  37.7990940 166.2495620  69.7744910  36.4997030
 164.3758260  86.9178340  32.8236850 164.7355900  87.5167680  32.1694120
 164.2350600  87.4638230  33.5971880 164.0727530  71.1952940  46.3112720
 163.3586050  71.3949860  46.9165330 164.4922570  70.4192510  46.6827520
 164.3600120  85.1833200  47.2979250 164.4691240  84.2427940  47.1574640
 163.7080680  85.4487950  46.6492980 172.3512710  83.4549090  48.6977370
 172.0309580  82.7358330  49.2423060 171.6771070  84.1304160  48.7713430
 170.3926880  84.3009540  33.6410520 170.3836980  85.0339230  33.0255030
 169.4725240  84.0541120  33.7337480 165.9933520  79.5224430  34.3857280
 165.3861470  80.2623330  34.3952580 166.4682870  79.6123790  33.5595480
 173.3786480  84.3637780  32.3035710 173.4798460  84.1601770  31.3737690
 172.4788220  84.1096060  32.5083490 170.9012370  74.9218140  36.2859610
 170.1928520  75.3904480  36.7273220 171.1856850  74.2640150  36.9204800
 172.5268300  76.3414840  44.2852140 173.0253550  76.8160660  44.9503990
 172.6691250  75.4178360  44.4922170 172.0204590  86.8824100  36.9983380
 172.2746090  86.8445490  36.0762750 171.0717070  86.7557430  36.9911630
 169.1047390  73.2303220  33.6610320 169.9537920  73.6673370  33.5950510
 168.7378660  73.5423480  34.4882380 168.0038810  79.4835580  32.1345850
 168.7702080  79.3716940  32.6971280 168.0813500  78.7873550  31.4822620
 166.6985570  76.9160650  32.8178740 166.7789160  75.9688160  32.9296140
 167.5905320  77.2467530  32.9239400 167.5000280  87.0656040  39.9213280
 168.2362760  86.5171500  40.1921850 167.8841200  87.9312050  39.7819270
 164.3845760  83.1329610  35.7954790 163.4585540  83.3750750  35.7860200
 164.8502190  83.9603870  35.6739540 166.5058560  86.2502110  49.1098860
 167.3071290  86.5714160  49.5234260 165.9910380  85.8897690  49.8318770
 170.6102590  86.2386350  31.7438850 171.4031200  86.5275180  31.2920640
 170.0906940  85.8078520  31.0651330 164.2256370  78.7375570  48.0534910
 164.7295390  78.1582850  48.6251140 163.4863790  79.0215800  48.5911280
 171.1279990  81.4589760  31.6081200 171.0230630  80.8442110  32.3342580
 170.9604210  80.9355650  30.8244210 171.2794310  80.1446560  47.5870430
 170.5139980  80.7131560  47.5025100 171.4610270  79.8522770  46.6938660
 166.2579450  76.8805160  48.9484980 166.2984790  76.5819030  49.8570210
 167.1124950  77.2812770  48.7892500 170.0357840  79.4800710  34.1088490
 170.4574260  79.3140580  34.9519880 170.1608680  78.6700940  33.6143630
 168.1985260  75.4597260  46.9159470 167.6681720  74.9688210  46.2882810
 168.8673330  75.8881460  46.3817400 172.5485480  78.5038320  31.3565590
 173.0691140  77.7887340  30.9906740 173.1953880  79.1424190  31.6566100
 168.6857560  72.4259630  46.9956760 168.5914430  71.8080380  46.2707630
 168.1054950  73.1525920  46.7686670 171.4519000  70.9832870  44.0284150
 171.0036300  71.0057130  43.1829700 170.8184200  70.5851890  44.6254450
 171.8578550  79.8787200  44.6496590 172.2766660  80.7219930  44.4772830
 170.9387180  80.0159240  44.4203370 168.9316740  75.5533940  31.0546650
 168.7305800  74.6901300  31.4159990 168.7608790  75.4667300  30.1168250
 169.7085970  86.1840210  45.7654320 169.1707060  86.9086270  45.4463020
 169.9619930  85.7070550  44.9751660 170.9611220  74.1524730  47.2910250
 171.5510910  73.8440580  47.9788070 170.1431460  73.6804480  47.4470150
 167.7299540  72.6534560  31.0424530 168.0325440  72.6601990  30.1343680
 168.4694130  72.3032420  31.5392190 172.5648180  87.4191420  46.0240970
 172.4906880  88.3226560  46.3313340 171.6627020  87.1003320  45.9963040
 170.9484470  71.5969180  32.0280730 170.6006470  70.9193170  31.4483180
 171.1497240  71.1358690  32.8424120 173.1133510  86.5849930  33.6467330
 174.0084300  86.9234900  33.6686090 173.1451140  85.8629340  33.0191610
 166.7529670  81.9576980  31.8754330 167.1904540  82.5006650  32.5311910
 167.2377400  81.1323930  31.8850670 163.9675470  84.7466010  39.3274590
 164.2978480  83.8787070  39.0953230 164.3966470  84.9524530  40.1579550
 168.5637390  83.0775020  36.9876560 168.2632930  82.9539990  37.8880470
 168.4574880  82.2183610  36.5792290 164.4565680  85.6136600  42.0656220
 164.0196670  85.7937400  42.8980370 165.0243360  86.3711220  41.9237940
 164.2890110  78.1256830  38.4245100 163.6338950  77.8568470  37.7804800
 165.1268060  78.0161310  37.9747080 165.3266040  78.5109400  42.9648440
 165.6939080  78.4236800  43.8444460 164.7576860  77.7475950  42.8655300
 164.8782040  75.4218490  46.8706860 163.9838090  75.3885250  47.2100570
 165.4179590  75.6205280  47.6358110 163.5028190  75.3355760  34.3670430
 162.5992270  75.5985960  34.1922090 163.9868810  75.6066930  33.5870390
 166.0455400  74.3921300  32.2764810 166.7547100  73.9704520  31.7912090
 165.3295340  74.4596530  31.6448160 165.6929560  70.4460630  31.3167460
 166.4157690  70.9869570  31.6348680 165.9654080  70.1724050  30.4409000
 165.3821750  69.6966820  41.2190080 166.0297940  69.1464200  40.7785240
 165.8023590  69.9509970  42.0405890 165.1353750  69.8522490  43.9615400
 164.7868570  70.3086310  44.7273580 164.8041450  68.9579620  44.0437830
 166.7418120  83.0242090  48.1268590 166.6987750  82.6535000  49.0083050
 166.8729130  83.9619660  48.2670410 170.4424150  84.5801680  43.7278310
 170.2015510  84.8476240  42.8408830 171.3826790  84.7507410  43.7829170
 172.6478570  71.0434370  47.4834820 172.5867460  71.6356200  48.2330230
 173.5878950  70.9360330  47.3385080 165.8074390  69.3798690  47.2366170
 166.3557380  69.1986740  46.4732280 165.8729700  68.5892800  47.7722480
 166.5806150  85.9704340  45.2466370 165.9866470  85.8389040  45.9856410
 166.5729990  85.1342480  44.7808470 166.2118380  83.3362720  44.1974410
 165.4852440  82.7168010  44.1300360 166.2727530  83.7303330  43.3272490
 169.8163480  85.5507720  40.9823820 170.3328500  84.9395080  40.4572080
 170.4660860  86.0536500  41.4734830 172.5558980  86.4416210  41.8092800
 172.8436790  86.1870510  40.9325810 173.0682200  85.8893570  42.3998370
 173.7735990  70.1806410  42.3889310 172.9907780  70.6551910  42.6686070
 173.4798920  69.2761240  42.2802490 164.4948380  86.6537110  37.4071170
 164.3270420  86.0207790  38.1053060 163.6282890  86.8596510  37.0565360
 165.1176400  70.4853890  34.9103030 165.8755760  70.5982770  34.3367060
 164.6553570  71.3223090  34.8646460 171.6590210  72.5993160  37.9005340
 170.8464720  72.2250050  37.5601220 172.1631850  71.8438240  38.2026530
 166.1011080  85.3470340  34.8521310 165.5758700  85.7278370  34.1483270
 166.0255660  85.9721110  35.5731020 167.4901550  71.0117940  33.4505000
 168.0194310  70.2247740  33.3212950 168.1229870  71.6909130  33.6840530
 169.6839390  70.7493080  36.5050390 169.0542130  70.0480390  36.6720520
 169.1444530  71.5097210  36.2883550 172.6231340  87.3632310  49.1761000
 173.5498650  87.1276580  49.2196960 172.6081770  88.1904310  48.6947030
 169.8094950  70.0277060  48.9402880 169.5279220  70.5310660  48.1763700
 170.1914650  69.2298810  48.5745010 168.7004050  87.2952720  33.7270560
 169.4322870  87.0112000  33.1794450 168.9597720  87.0566000  34.6169940
 167.8618840  83.4117450  33.7316890 167.2327720  83.8802550  34.2802720
 167.9766670  82.5666670  34.1663080 173.4486600  79.2402130  21.7627360
 172.6728700  78.7602570  22.0525930 174.0999530  78.5607780  21.5883520
 167.4652430  79.5521940  22.6403120 166.6337310  79.2970650  23.0399630
 168.0733410  79.6232710  23.3761040 167.4453690  83.5862030  22.8361140
 167.7481730  82.6959770  22.6571360 168.1897280  84.1432250  22.6083390
 165.8744380  74.5123830  16.4245510 164.9861080  74.8539800  16.3225390
 166.1585570  74.3124150  15.5326340 163.8377390  77.1129480  22.3085210
 164.4093500  76.3451680  22.3088850 163.8378930  77.4118240  21.3991820
 173.6957340  85.9320330  20.1630480 173.0768780  86.3877830  19.5924920
 174.5509120  86.0871790  19.7620180 172.8895590  81.9159320  21.7697520
 172.8203870  80.9749260  21.6086650 173.6515450  82.0060730  22.3420090
 165.0802260  72.5213840  24.0954140 164.9005100  71.6239590  24.3756900
 164.6782340  73.0685710  24.7701090 173.9200760  74.7229700  21.9966450
 174.2965580  73.8501580  21.8840120 173.8220270  75.0588400  21.1056890
 168.0505770  73.0955330  17.4583890 168.1572520  73.9959060  17.7652650
 167.1398130  73.0473300  17.1678540 165.6988930  75.0174340  22.7036480
 166.3799040  75.2812710  23.3223880 165.3836980  74.1775210  23.0374490
 169.8913500  76.0641700  21.7909070 170.3991720  76.5622670  22.4314090
 170.4226740  75.2876900  21.6148430 168.1749600  70.7040260  26.0572490
 168.1768040  71.2212650  25.2518390 167.3453910  70.2270440  26.0342420
 169.4252450  80.3435440  24.2345990 169.0921830  80.9704360  24.8767060
 169.6019130  80.8697320  23.4547660 167.8564930  72.4150220  24.0642940
 168.1981740  73.2592270  23.7696810 166.9180740  72.5633960  24.1808280
 168.6371550  82.3116240  26.0495170 169.2545550  82.9867320  25.7679620
 167.7764670  82.7204220  25.9582670 163.9303890  81.5016100  14.9302020
 163.5531870  81.9903200  14.1986920 164.1876960  82.1741380  15.5608550
 171.5392820  69.9032490  20.3887530 171.8467800  69.3479380  19.6723030
 170.6093520  70.0376950  20.2060520 173.9273580  77.9681320  17.1247650
 173.0002860  77.9018700  17.3536120 174.0798400  78.9061450  17.0102890
 173.9142660  74.2398320  14.1214810 172.9746330  74.4012280  14.2067270
 174.2325920  74.9584000  13.5750800 169.5330220  78.4946060  19.9067380
 169.1287220  77.7823310  19.4113280 169.6193340  78.1499300  20.7955420
 170.0011920  82.1813620  22.0706590 169.7040210  81.5759090  21.3914370
 170.9511740  82.2190930  21.9595950 168.2458840  75.2689270  23.6866420
 168.7973430  75.3784610  22.9119670 168.7602350  75.6426870  24.4021650
 169.0930350  81.9195310  28.7214390 168.1958880  82.1435280  28.9687790
 169.1183220  82.0430250  27.7725790 167.9201570  78.7908630  27.2971760
 167.7809340  79.6631430  27.6659160 167.0382930  78.4481440  27.1519700
 174.2430950  83.7084500  18.6036890 174.6826860  84.4508830  18.1892280
 174.1817840  83.9511070  19.5275850 169.7181920  84.7330330  29.5056910
 169.6897350  85.1373280  28.6385340 169.5546890  83.8040690  29.3428510
 166.2334850  77.3891040  17.4074030 166.1132450  78.1153130  16.7955300
 165.9235740  76.6193950  16.9301940 163.8720220  80.5606180  23.2142670
 163.9500640  80.6954950  22.2698390 164.4861900  79.8522070  23.4070790
 165.1167850  82.2606370  19.6248850 164.7095930  82.4020960  18.7702450
 166.0080860  81.9766530  19.4220060 169.3889510  86.4752150  17.7371520
 169.2131990  85.5587690  17.5239320 168.5345250  86.8339440  17.9769320
 163.9279740  81.6020350  25.7537130 164.0910780  81.1325710  24.9356500
 164.3932190  81.0943910  26.4185970 168.6998510  70.7326110  20.7897700
 168.2566660  71.5135650  20.4582220 169.2583500  71.0556000  21.4968640
 172.9868320  73.5994630  26.3933020 172.5247690  73.8077650  27.2052960
 172.5846430  72.7853980  26.0903690 171.8157330  70.3536810  15.6703530
 171.1911510  70.3496680  16.3956840 171.7287450  69.4867770  15.2739500
 170.7374410  71.2773440  22.6487300 171.0346740  72.1836270  22.5679320
 171.2859970  70.7892220  22.0346870 168.4912730  75.8559680  18.5178950
 168.2653650  75.6396850  19.4225570 167.7105260  76.2888140  18.1724920
 170.9311940  76.7545260  29.1839220 170.8355540  75.8139990  29.0339620
 171.7743920  76.9760330  28.7887290 174.3275360  74.4986590  19.1472880
 174.7204930  74.8158790  18.3341570 174.6892210  73.6198470  19.2617400
 166.0622480  73.1658930  27.3373000 165.6685870  74.0134140  27.5445780
 165.3740880  72.5285300  27.5281640 172.6367530  73.2493900  30.4069740
 171.9465850  73.0566100  31.0415830 173.3799830  73.5328540  30.9394040
 163.3639530  71.0887390  21.3703080 163.0752580  71.6590250  22.0828060
 164.1085290  70.6091840  21.7334310 163.5509760  75.0307510  12.5805800
 163.4684430  75.9738270  12.7220790 163.1992820  74.8882420  11.7018150
 171.3507890  73.7646540  21.6476150 171.3543950  73.3236490  20.7980690
 172.2459010  74.0863870  21.7547970 167.2010270  73.6473030  20.6070360
 166.8610320  74.1248260  21.3637410 166.4387590  73.1938150  20.2471460
 171.4128040  74.7658620  14.6382910 171.5340860  74.7245100  15.5868730
 171.0276550  75.6282770  14.4829640 170.4249540  77.0759760  14.0366210
 169.8566440  76.6278010  13.4102120 171.1338540  77.4352540  13.5031360
 165.5018720  80.9771780  27.9132940 165.1173510  80.3365450  28.5115900
 165.8130910  81.6807900  28.4827670 171.6515860  77.8248320  23.3941560
 172.0185990  77.3506890  24.1402900 171.4620920  78.6989890  23.7349900
 164.5156350  72.5692010  19.5235030 164.2303270  72.2047680  20.3613650
 164.4535210  71.8372470  18.9098170 169.4415230  76.8656960  25.7125770
 169.1372300  77.7448940  25.9376130 170.3961690  76.9256750  25.7483210
 167.9697020  81.0717950  16.3092620 167.1959280  80.5315570  16.1491340
 168.6991650  80.5524560  15.9710380 174.1894940  71.4621270  16.2448400
 173.3759550  70.9634440  16.1693710 173.9956890  72.3019520  15.8284750
 174.1103800  80.1392370  27.9888010 174.0441110  79.2188040  27.7345600
 173.4808940  80.2367810  28.7032650 168.0134420  80.7398330  19.9471430
 168.5313090  79.9366590  19.8928320 167.5618440  80.6777470  20.7888260
 172.9003920  82.0064610  15.2198730 173.2419620  82.7506840  14.7242050
 172.0716630  82.3195730  15.5823560 165.4978960  77.7059700  26.8597130
 165.1393900  78.3713550  27.4470470 165.2033520  76.8743250  27.2309750
 174.0420530  82.9612940  27.7391810 174.0565070  82.0293900  27.5210720
 173.3345630  83.0472700  28.3781580 171.8694610  82.0878140  17.9914650
 172.5565740  82.6347350  18.3722240 171.0827030  82.6318870  18.0264260
 164.0087010  77.7050960  13.4831730 164.8781860  77.9875760  13.7667650
 163.5177330  78.5186830  13.3680540 171.1721820  79.0924170  17.6040010
 171.6284600  79.9029420  17.8300200 170.8210030  78.7747310  18.4358500
 173.4754430  84.6030510  24.8332310 174.1196650  84.8089890  25.5105730
 173.8383870  83.8418910  24.3803160 167.0733600  69.4361820  18.0762530
 166.9448230  69.4279720  19.0247450 166.2495620  69.7744910  17.7253540
 164.3758260  86.9178340  14.0493360 164.7355900  87.5167680  13.3950630
 164.2350600  87.4638230  14.8228390 164.0727530  71.1952940  27.5369230
 163.3586050  71.3949860  28.1421840 164.4922570  70.4192510  27.9084030
 164.3600120  85.1833200  28.5235760 164.4691240  84.2427940  28.3831150
 163.7080680  85.4487950  27.8749490 172.3512710  83.4549090  29.9233880
 172.0309580  82.7358330  30.4679570 171.6771070  84.1304160  29.9969940
 170.3926880  84.3009540  14.8667030 170.3836980  85.0339230  14.2511540
 169.4725240  84.0541120  14.9593990 165.9933520  79.5224430  15.6113790
 165.3861470  80.2623330  15.6209090 166.4682870  79.6123790  14.7851990
 173.3786480  84.3637780  13.5292220 173.4798460  84.1601770  12.5994200
 172.4788220  84.1096060  13.7340000 170.9012370  74.9218140  17.5116120
 170.1928520  75.3904480  17.9529730 171.1856850  74.2640150  18.1461310
 172.5268300  76.3414840  25.5108650 173.0253550  76.8160660  26.1760500
 172.6691250  75.4178360  25.7178680 172.0204590  86.8824100  18.2239890
 172.2746090  86.8445490  17.3019260 171.0717070  86.7557430  18.2168140
 169.1047390  73.2303220  14.8866830 169.9537920  73.6673370  14.8207020
 168.7378660  73.5423480  15.7138890 168.0038810  79.4835580  13.3602360
 168.7702080  79.3716940  13.9227790 168.0813500  78.7873550  12.7079130
 166.6985570  76.9160650  14.0435250 166.7789160  75.9688160  14.1552650
 167.5905320  77.2467530  14.1495910 167.5000280  87.0656040  21.1469790
 168.2362760  86.5171500  21.4178360 167.8841200  87.9312050  21.0075780
 164.3845760  83.1329610  17.0211300 163.4585540  83.3750750  17.0116710
 164.8502190  83.9603870  16.8996050 166.5058560  86.2502110  30.3355370
 167.3071290  86.5714160  30.7490770 165.9910380  85.8897690  31.0575280
 170.6102590  86.2386350  12.9695360 171.4031200  86.5275180  12.5177150
 170.0906940  85.8078520  12.2907840 164.2256370  78.7375570  29.2791420
 164.7295390  78.1582850  29.8507650 163.4863790  79.0215800  29.8167790
 171.1279990  81.4589760  12.8337710 171.0230630  80.8442110  13.5599090
 170.9604210  80.9355650  12.0500720 171.2794310  80.1446560  28.8126940
 170.5139980  80.7131560  28.7281610 171.4610270  79.8522770  27.9195170
 166.2579450  76.8805160  30.1741490 166.2984790  76.5819030  31.0826720
 167.1124950  77.2812770  30.0149010 170.0357840  79.4800710  15.3345000
 170.4574260  79.3140580  16.1776390 170.1608680  78.6700940  14.8400140
 168.1985260  75.4597260  28.1415980 167.6681720  74.9688210  27.5139320
 168.8673330  75.8881460  27.6073910 172.5485480  78.5038320  12.5822100
 173.0691140  77.7887340  12.2163250 173.1953880  79.1424190  12.8822610
 168.6857560  72.4259630  28.2213270 168.5914430  71.8080380  27.4964140
 168.1054950  73.1525920  27.9943180 171.4519000  70.9832870  25.2540660
 171.0036300  71.0057130  24.4086210 170.8184200  70.5851890  25.8510960
 171.8578550  79.8787200  25.8753100 172.2766660  80.7219930  25.7029340
 170.9387180  80.0159240  25.6459880 168.9316740  75.5533940  12.2803160
 168.7305800  74.6901300  12.6416500 168.7608790  75.4667300  11.3424760
 169.7085970  86.1840210  26.9910830 169.1707060  86.9086270  26.6719530
 169.9619930  85.7070550  26.2008170 170.9611220  74.1524730  28.5166760
 171.5510910  73.8440580  29.2044580 170.1431460  73.6804480  28.6726660
 167.7299540  72.6534560  12.2681040 168.0325440  72.6601990  11.3600190
 168.4694130  72.3032420  12.7648700 172.5648180  87.4191420  27.2497480
 172.4906880  88.3226560  27.5569850 171.6627020  87.1003320  27.2219550
 170.9484470  71.5969180  13.2537240 170.6006470  70.9193170  12.6739690
 171.1497240  71.1358690  14.0680630 173.1133510  86.5849930  14.8723840
 174.0084300  86.9234900  14.8942600 173.1451140  85.8629340  14.2448120
 166.7529670  81.9576980  13.1010840 167.1904540  82.5006650  13.7568420
 167.2377400  81.1323930  13.1107180 163.9675470  84.7466010  20.5531100
 164.2978480  83.8787070  20.3209740 164.3966470  84.9524530  21.3836060
 168.5637390  83.0775020  18.2133070 168.2632930  82.9539990  19.1136980
 168.4574880  82.2183610  17.8048800 164.4565680  85.6136600  23.2912730
 164.0196670  85.7937400  24.1236880 165.0243360  86.3711220  23.1494450
 164.2890110  78.1256830  19.6501610 163.6338950  77.8568470  19.0061310
 165.1268060  78.0161310  19.2003590 165.3266040  78.5109400  24.1904950
 165.6939080  78.4236800  25.0700970 164.7576860  77.7475950  24.0911810
 164.8782040  75.4218490  28.0963370 163.9838090  75.3885250  28.4357080
 165.4179590  75.6205280  28.8614620 163.5028190  75.3355760  15.5926940
 162.5992270  75.5985960  15.4178600 163.9868810  75.6066930  14.8126900
 166.0455400  74.3921300  13.5021320 166.7547100  73.9704520  13.0168600
 165.3295340  74.4596530  12.8704670 165.6929560  70.4460630  12.5423970
 166.4157690  70.9869570  12.8605190 165.9654080  70.1724050  11.6665510
 165.3821750  69.6966820  22.4446590 166.0297940  69.1464200  22.0041750
 165.8023590  69.9509970  23.2662400 165.1353750  69.8522490  25.1871910
 164.7868570  70.3086310  25.9530090 164.8041450  68.9579620  25.2694340
 166.7418120  83.0242090  29.3525100 166.6987750  82.6535000  30.2339560
 166.8729130  83.9619660  29.4926920 170.4424150  84.5801680  24.9534820
 170.2015510  84.8476240  24.0665340 171.3826790  84.7507410  25.0085680
 172.6478570  71.0434370  28.7091330 172.5867460  71.6356200  29.4586740
 173.5878950  70.9360330  28.5641590 165.8074390  69.3798690  28.4622680
 166.3557380  69.1986740  27.6988790 165.8729700  68.5892800  28.9978990
 166.5806150  85.9704340  26.4722880 165.9866470  85.8389040  27.2112920
 166.5729990  85.1342480  26.0064980 166.2118380  83.3362720  25.4230920
 165.4852440  82.7168010  25.3556870 166.2727530  83.7303330  24.5529000
 169.8163480  85.5507720  22.2080330 170.3328500  84.9395080  21.6828590
 170.4660860  86.0536500  22.6991340 172.5558980  86.4416210  23.0349310
 172.8436790  86.1870510  22.1582320 173.0682200  85.8893570  23.6254880
 173.7735990  70.1806410  23.6145820 172.9907780  70.6551910  23.8942580
 173.4798920  69.2761240  23.5059000 164.4948380  86.6537110  18.6327680
 164.3270420  86.0207790  19.3309570 163.6282890  86.8596510  18.2821870
 165.1176400  70.4853890  16.1359540 165.8755760  70.5982770  15.5623570
 164.6553570  71.3223090  16.0902970 171.6590210  72.5993160  19.1261850
 170.8464720  72.2250050  18.7857730 172.1631850  71.8438240  19.4283040
 166.1011080  85.3470340  16.0777820 165.5758700  85.7278370  15.3739780
 166.0255660  85.9721110  16.7987530 167.4901550  71.0117940  14.6761510
 168.0194310  70.2247740  14.5469460 168.1229870  71.6909130  14.9097040
 169.6839390  70.7493080  17.7306900 169.0542130  70.0480390  17.8977030
 169.1444530  71.5097210  17.5140060 172.6231340  87.3632310  30.4017510
 173.5498650  87.1276580  30.4453470 172.6081770  88.1904310  29.9203540
 169.8094950  70.0277060  30.1659390 169.5279220  70.5310660  29.4020210
 170.1914650  69.2298810  29.8001520 168.7004050  87.2952720  14.9527070
 169.4322870  87.0112000  14.4050960 168.9597720  87.0566000  15.8426450
 167.8618840  83.4117450  14.9573400 167.2327720  83.8802550  15.5059230
 167.9766670  82.5666670  15.3919590 173.4486600  79.2402130   2.9883870
 172.6728700  78.7602570   3.2782440 174.0999530  78.5607780   2.8140030
 167.4652430  79.5521940   3.8659630 166.6337310  79.2970650   4.2656140
 168.0733410  79.6232710   4.6017550 167.4453690  83.5862030   4.0617650
 167.7481730  82.6959770   3.8827870 168.1897280  84.1432250   3.8339900
 163.8377390  77.1129480   3.5341720 164.4093500  76.3451680   3.5345360
 163.8378930  77.4118240   2.6248330 172.8895590  81.9159320   2.9954030
 172.8203870  80.9749260   2.8343160 173.6515450  82.0060730   3.5676600
 165.0802260  72.5213840   5.3210650 164.9005100  71.6239590   5.6013410
 164.6782340  73.0685710   5.9957600 173.9200760  74.7229700   3.2222960
 174.2965580  73.8501580   3.1096630 173.8220270  75.0588400   2.3313400
 165.6988930  75.0174340   3.9292990 166.3799040  75.2812710   4.5480390
 165.3836980  74.1775210   4.2631000 169.8913500  76.0641700   3.0165580
 170.3991720  76.5622670   3.6570600 170.4226740  75.2876900   2.8404940
 168.1749600  70.7040260   7.2829000 168.1768040  71.2212650   6.4774900
 167.3453910  70.2270440   7.2598930 167.8564930  72.4150220   5.2899450
 168.1981740  73.2592270   4.9953320 166.9180740  72.5633960   5.4064790
 168.6371550  82.3116240   7.2751680 169.2545550  82.9867320   6.9936130
 167.7764670  82.7204220   7.1839180 170.0011920  82.1813620   3.2963100
 169.7040210  81.5759090   2.6170880 170.9511740  82.2190930   3.1852460
 168.2458840  75.2689270   4.9122930 168.7973430  75.3784610   4.1376180
 168.7602350  75.6426870   5.6278160 169.0930350  81.9195310   9.9470900
 168.1958880  82.1435280  10.1944300 169.1183220  82.0430250   8.9982300
 167.9201570  78.7908630   8.5228270 167.7809340  79.6631430   8.8915670
 167.0382930  78.4481440   8.3776210 169.7181920  84.7330330  10.7313420
 169.6897350  85.1373280   9.8641850 169.5546890  83.8040690  10.5685020
 163.8720220  80.5606180   4.4399180 163.9500640  80.6954950   3.4954900
 164.4861900  79.8522070   4.6327300 163.9279740  81.6020350   6.9793640
 164.0910780  81.1325710   6.1613010 164.3932190  81.0943910   7.6442480
 172.9868320  73.5994630   7.6189530 172.5247690  73.8077650   8.4309470
 172.5846430  72.7853980   7.3160200 170.7374410  71.2773440   3.8743810
 171.0346740  72.1836270   3.7935830 171.2859970  70.7892220   3.2603380
 170.9311940  76.7545260  10.4095730 170.8355540  75.8139990  10.2596130
 171.7743920  76.9760330  10.0143800 166.0622480  73.1658930   8.5629510
 165.6685870  74.0134140   8.7702290 165.3740880  72.5285300   8.7538150
 172.6367530  73.2493900  11.6326250 171.9465850  73.0566100  12.2672340
 173.3799830  73.5328540  12.1650550 163.3639530  71.0887390   2.5959590
 163.0752580  71.6590250   3.3084570 164.1085290  70.6091840   2.9590820
 171.3507890  73.7646540   2.8732660 171.3543950  73.3236490   2.0237200
 172.2459010  74.0863870   2.9804480 167.2010270  73.6473030   1.8326870
 166.8610320  74.1248260   2.5893920 166.4387590  73.1938150   1.4727970
 165.5018720  80.9771780   9.1389450 165.1173510  80.3365450   9.7372410
 165.8130910  81.6807900   9.7084180 171.6515860  77.8248320   4.6198070
 172.0185990  77.3506890   5.3659410 171.4620920  78.6989890   4.9606410
 169.4415230  76.8656960   6.9382280 169.1372300  77.7448940   7.1632640
 170.3961690  76.9256750   6.9739720 174.1103800  80.1392370   9.2144520
 174.0441110  79.2188040   8.9602110 173.4808940  80.2367810   9.9289160
 165.4978960  77.7059700   8.0853640 165.1393900  78.3713550   8.6726980
 165.2033520  76.8743250   8.4566260 168.6992080  78.1643940  10.9693190
 168.3992220  78.3101120  10.0721010 169.4703320  77.6049230  10.8766580
 174.0420530  82.9612940   8.9648320 174.0565070  82.0293900   8.7467230
 173.3345630  83.0472700   9.6038090 173.4754430  84.6030510   6.0588820
 174.1196650  84.8089890   6.7362240 173.8383870  83.8418910   5.6059670
 164.0727530  71.1952940   8.7625740 163.3586050  71.3949860   9.3678350
 164.4922570  70.4192510   9.1340540 164.3600120  85.1833200   9.7492270
 164.4691240  84.2427940   9.6087660 163.7080680  85.4487950   9.1006000
 172.3512710  83.4549090  11.1490390 172.0309580  82.7358330  11.6936080
 171.6771070  84.1304160  11.2226450 172.5268300  76.3414840   6.7365160
 173.0253550  76.8160660   7.4017010 172.6691250  75.4178360   6.9435190
 167.5000280  87.0656040   2.3726300 168.2362760  86.5171500   2.6434870
 167.8841200  87.9312050   2.2332290 166.5058560  86.2502110  11.5611880
 167.3071290  86.5714160  11.9747280 165.9910380  85.8897690  12.2831790
 164.2256370  78.7375570  10.5047930 164.7295390  78.1582850  11.0764160
 163.4863790  79.0215800  11.0424300 171.2794310  80.1446560  10.0383450
 170.5139980  80.7131560   9.9538120 171.4610270  79.8522770   9.1451680
 166.2579450  76.8805160  11.3998000 166.2984790  76.5819030  12.3083230
 167.1124950  77.2812770  11.2405520 168.1985260  75.4597260   9.3672490
 167.6681720  74.9688210   8.7395830 168.8673330  75.8881460   8.8330420
 168.6857560  72.4259630   9.4469780 168.5914430  71.8080380   8.7220650
 168.1054950  73.1525920   9.2199690 171.4519000  70.9832870   6.4797170
 171.0036300  71.0057130   5.6342720 170.8184200  70.5851890   7.0767470
 171.8578550  79.8787200   7.1009610 172.2766660  80.7219930   6.9285850
 170.9387180  80.0159240   6.8716390 169.7085970  86.1840210   8.2167340
 169.1707060  86.9086270   7.8976040 169.9619930  85.7070550   7.4264680
 170.9611220  74.1524730   9.7423270 171.5510910  73.8440580  10.4301090
 170.1431460  73.6804480   9.8983170 172.5648180  87.4191420   8.4753990
 172.4906880  88.3226560   8.7826360 171.6627020  87.1003320   8.4476060
 163.9675470  84.7466010   1.7787610 164.2978480  83.8787070   1.5466250
 164.3966470  84.9524530   2.6092570 164.4565680  85.6136600   4.5169240
 164.0196670  85.7937400   5.3493390 165.0243360  86.3711220   4.3750960
 165.3266040  78.5109400   5.4161460 165.6939080  78.4236800   6.2957480
 164.7576860  77.7475950   5.3168320 164.8782040  75.4218490   9.3219880
 163.9838090  75.3885250   9.6613590 165.4179590  75.6205280  10.0871130
 165.3821750  69.6966820   3.6703100 166.0297940  69.1464200   3.2298260
 165.8023590  69.9509970   4.4918910 165.1353750  69.8522490   6.4128420
 164.7868570  70.3086310   7.1786600 164.8041450  68.9579620   6.4950850
 166.7418120  83.0242090  10.5781610 166.6987750  82.6535000  11.4596070
 166.8729130  83.9619660  10.7183430 170.4424150  84.5801680   6.1791330
 170.2015510  84.8476240   5.2921850 171.3826790  84.7507410   6.2342190
 172.6478570  71.0434370   9.9347840 172.5867460  71.6356200  10.6843250
 173.5878950  70.9360330   9.7898100 165.8074390  69.3798690   9.6879190
 166.3557380  69.1986740   8.9245300 165.8729700  68.5892800  10.2235500
 166.5806150  85.9704340   7.6979390 165.9866470  85.8389040   8.4369430
 166.5729990  85.1342480   7.2321490 166.2118380  83.3362720   6.6487430
 165.4852440  82.7168010   6.5813380 166.2727530  83.7303330   5.7785510
 169.8163480  85.5507720   3.4336840 170.3328500  84.9395080   2.9085100
 170.4660860  86.0536500   3.9247850 172.5558980  86.4416210   4.2605820
 172.8436790  86.1870510   3.3838830 173.0682200  85.8893570   4.8511390
 173.7735990  70.1806410   4.8402330 172.9907780  70.6551910   5.1199090
 173.4798920  69.2761240   4.7315510 172.6231340  87.3632310  11.6274020
 173.5498650  87.1276580  11.6709980 172.6081770  88.1904310  11.1460050
 169.8094950  70.0277060  11.3915900 169.5279220  70.5310660  10.6276720
 170.1914650  69.2298810  11.0258030 173.4486600  60.4658640  59.3114340
 172.6728700  59.9859080  59.6012910 174.0999530  59.7864290  59.1370500
 165.8744380  55.7380340  53.9732490 164.9861080  56.0796310  53.8712370
 166.1585570  55.5380660  53.0813320 163.8377390  58.3385990  59.8572190
 164.4093500  57.5708190  59.8575830 163.8378930  58.6374750  58.9478800
 173.6957340  67.1576840  57.7117460 173.0768780  67.6134340  57.1411900
 174.5509120  67.3128300  57.3107160 172.8895590  63.1415830  59.3184500
 172.8203870  62.2005770  59.1573630 173.6515450  63.2317240  59.8907070
 173.9200760  55.9486210  59.5453430 174.2965580  55.0758090  59.4327100
 173.8220270  56.2844910  58.6543870 168.0505770  54.3211840  55.0070870
 168.1572520  55.2215570  55.3139630 167.1398130  54.2729810  54.7165520
 169.8913500  57.2898210  59.3396050 170.3991720  57.7879180  59.9801070
 170.4226740  56.5133410  59.1635410 163.9303890  62.7272610  52.4789000
 163.5531870  63.2159710  51.7473900 164.1876960  63.3997890  53.1095530
 171.5392820  51.1289000  57.9374510 171.8467800  50.5735890  57.2210010
 170.6093520  51.2633460  57.7547500 173.9273580  59.1937830  54.6734630
 173.0002860  59.1275210  54.9023100 174.0798400  60.1317960  54.5589870
 173.9142660  55.4654830  51.6701790 172.9746330  55.6268790  51.7554250
 174.2325920  56.1840510  51.1237780 169.5330220  59.7202570  57.4554360
 169.1287220  59.0079820  56.9600260 169.6193340  59.3755810  58.3442400
 170.0011920  63.4070130  59.6193570 169.7040210  62.8015600  58.9401350
 170.9511740  63.4447440  59.5082930 174.2430950  64.9341010  56.1523870
 174.6826860  65.6765340  55.7379260 174.1817840  65.1767580  57.0762830
 166.2334850  58.6147550  54.9561010 166.1132450  59.3409640  54.3442280
 165.9235740  57.8450460  54.4788920 165.1167850  63.4862880  57.1735830
 164.7095930  63.6277470  56.3189430 166.0080860  63.2023040  56.9707040
 169.3889510  67.7008660  55.2858500 169.2131990  66.7844200  55.0726300
 168.5345250  68.0595950  55.5256300 168.6998510  51.9582620  58.3384680
 168.2566660  52.7392160  58.0069200 169.2583500  52.2812510  59.0455620
 171.8157330  51.5793320  53.2190510 171.1911510  51.5753190  53.9443820
 171.7287450  50.7124280  52.8226480 170.7374410  52.5029950  60.1974280
 171.0346740  53.4092780  60.1166300 171.2859970  52.0148730  59.5833850
 168.4912730  57.0816190  56.0665930 168.2653650  56.8653360  56.9712550
 167.7105260  57.5144650  55.7211900 174.3275360  55.7243100  56.6959860
 174.7204930  56.0415300  55.8828550 174.6892210  54.8454980  56.8104380
 163.3639530  52.3143900  58.9190060 163.0752580  52.8846760  59.6315040
 164.1085290  51.8348350  59.2821290 163.5509760  56.2564020  50.1292780
 163.4684430  57.1994780  50.2707770 163.1992820  56.1138930  49.2505130
 171.3507890  54.9903050  59.1963130 171.3543950  54.5493000  58.3467670
 172.2459010  55.3120380  59.3034950 167.2010270  54.8729540  58.1557340
 166.8610320  55.3504770  58.9124390 166.4387590  54.4194660  57.7958440
 171.4128040  55.9915130  52.1869890 171.5340860  55.9501610  53.1355710
 171.0276550  56.8539280  52.0316620 170.4249540  58.3016270  51.5853190
 169.8566440  57.8534520  50.9589100 171.1338540  58.6609050  51.0518340
 164.5156350  53.7948520  57.0722010 164.2303270  53.4304190  57.9100630
 164.4535210  53.0628980  56.4585150 167.9697020  62.2974460  53.8579600
 167.1959280  61.7572080  53.6978320 168.6991650  61.7781070  53.5197360
 174.1894940  52.6877780  53.7935380 173.3759550  52.1890950  53.7180690
 173.9956890  53.5276030  53.3771730 168.0134420  61.9654840  57.4958410
 168.5313090  61.1623100  57.4415300 167.5618440  61.9033980  58.3375240
 172.9003920  63.2321120  52.7685710 173.2419620  63.9763350  52.2729030
 172.0716630  63.5452240  53.1310540 171.8694610  63.3134650  55.5401630
 172.5565740  63.8603860  55.9209220 171.0827030  63.8575380  55.5751240
 164.0087010  58.9307470  51.0318710 164.8781860  59.2132270  51.3154630
 163.5177330  59.7443340  50.9167520 171.1721820  60.3180680  55.1526990
 171.6284600  61.1285930  55.3787180 170.8210030  60.0003820  55.9845480
 167.0733600  50.6618330  55.6249510 166.9448230  50.6536230  56.5734430
 166.2495620  51.0001420  55.2740520 164.3758260  68.1434850  51.5980340
 164.7355900  68.7424190  50.9437610 164.2350600  68.6894740  52.3715370
 170.3926880  65.5266050  52.4154010 170.3836980  66.2595740  51.7998520
 169.4725240  65.2797630  52.5080970 165.9933520  60.7480940  53.1600770
 165.3861470  61.4879840  53.1696070 166.4682870  60.8380300  52.3338970
 173.3786480  65.5894290  51.0779200 173.4798460  65.3858280  50.1481180
 172.4788220  65.3352570  51.2826980 170.9012370  56.1474650  55.0603100
 170.1928520  56.6160990  55.5016710 171.1856850  55.4896660  55.6948290
 172.0204590  68.1080610  55.7726870 172.2746090  68.0702000  54.8506240
 171.0717070  67.9813940  55.7655120 169.1047390  54.4559730  52.4353810
 169.9537920  54.8929880  52.3694000 168.7378660  54.7679990  53.2625870
 168.0038810  60.7092090  50.9089340 168.7702080  60.5973450  51.4714770
 168.0813500  60.0130060  50.2566110 166.6985570  58.1417160  51.5922230
 166.7789160  57.1944670  51.7039630 167.5905320  58.4724040  51.6982890
 167.5000280  68.2912550  58.6956770 168.2362760  67.7428010  58.9665340
 167.8841200  69.1568560  58.5562760 164.3845760  64.3586120  54.5698280
 163.4585540  64.6007260  54.5603690 164.8502190  65.1860380  54.4483030
 170.6102590  67.4642860  50.5182340 171.4031200  67.7531690  50.0664130
 170.0906940  67.0335030  49.8394820 171.1279990  62.6846270  50.3824690
 171.0230630  62.0698620  51.1086070 170.9604210  62.1612160  49.5987700
 170.0357840  60.7057220  52.8831980 170.4574260  60.5397090  53.7263370
 170.1608680  59.8957450  52.3887120 172.5485480  59.7294830  50.1309080
 173.0691140  59.0143850  49.7650230 173.1953880  60.3680700  50.4309590
 168.9316740  56.7790450  49.8290140 168.7305800  55.9157810  50.1903480
 168.7608790  56.6923810  48.8911740 167.7299540  53.8791070  49.8168020
 168.0325440  53.8858500  48.9087170 168.4694130  53.5288930  50.3135680
 170.9484470  52.8225690  50.8024220 170.6006470  52.1449680  50.2226670
 171.1497240  52.3615200  51.6167610 173.1133510  67.8106440  52.4210820
 174.0084300  68.1491410  52.4429580 173.1451140  67.0885850  51.7935100
 166.7529670  63.1833490  50.6497820 167.1904540  63.7263160  51.3055400
 167.2377400  62.3580440  50.6594160 163.9675470  65.9722520  58.1018080
 164.2978480  65.1043580  57.8696720 164.3966470  66.1781040  58.9323040
 168.5637390  64.3031530  55.7620050 168.2632930  64.1796500  56.6623960
 168.4574880  63.4440120  55.3535780 164.2890110  59.3513340  57.1988590
 163.6338950  59.0824980  56.5548290 165.1268060  59.2417820  56.7490570
 163.5028190  56.5612270  53.1413920 162.5992270  56.8242470  52.9665580
 163.9868810  56.8323440  52.3613880 166.0455400  55.6177810  51.0508300
 166.7547100  55.1961030  50.5655580 165.3295340  55.6853040  50.4191650
 165.6929560  51.6717140  50.0910950 166.4157690  52.2126080  50.4092170
 165.9654080  51.3980560  49.2152490 169.8163480  66.7764230  59.7567310
 170.3328500  66.1651590  59.2315570 170.4660860  67.2793010  60.2478320
 164.4948380  67.8793620  56.1814660 164.3270420  67.2464300  56.8796550
 163.6282890  68.0853020  55.8308850 165.1176400  51.7110400  53.6846520
 165.8755760  51.8239280  53.1110550 164.6553570  52.5479600  53.6389950
 171.6590210  53.8249670  56.6748830 170.8464720  53.4506560  56.3344710
 172.1631850  53.0694750  56.9770020 166.1011080  66.5726850  53.6264800
 165.5758700  66.9534880  52.9226760 166.0255660  67.1977620  54.3474510
 167.4901550  52.2374450  52.2248490 168.0194310  51.4504250  52.0956440
 168.1229870  52.9165640  52.4584020 169.6839390  51.9749590  55.2793880
 169.0542130  51.2736900  55.4464010 169.1444530  52.7353720  55.0627040
 168.7004050  68.5209230  52.5014050 169.4322870  68.2368510  51.9537940
 168.9597720  68.2822510  53.3913430 167.8618840  64.6373960  52.5060380
 167.2327720  65.1059060  53.0546210 167.9766670  63.7923180  52.9406570
 173.4486600  60.4658640  40.5370850 172.6728700  59.9859080  40.8269420
 174.0999530  59.7864290  40.3627010 167.4652430  60.7778450  41.4146610
 166.6337310  60.5227160  41.8143120 168.0733410  60.8489220  42.1504530
 167.4453690  64.8118540  41.6104630 167.7481730  63.9216280  41.4314850
 168.1897280  65.3688760  41.3826880 165.8744380  55.7380340  35.1989000
 164.9861080  56.0796310  35.0968880 166.1585570  55.5380660  34.3069830
 163.8377390  58.3385990  41.0828700 164.4093500  57.5708190  41.0832340
 163.8378930  58.6374750  40.1735310 173.6957340  67.1576840  38.9373970
 173.0768780  67.6134340  38.3668410 174.5509120  67.3128300  38.5363670
 172.8895590  63.1415830  40.5441010 172.8203870  62.2005770  40.3830140
 173.6515450  63.2317240  41.1163580 165.0802260  53.7470350  42.8697630
 164.9005100  52.8496100  43.1500390 164.6782340  54.2942220  43.5444580
 173.9200760  55.9486210  40.7709940 174.2965580  55.0758090  40.6583610
 173.8220270  56.2844910  39.8800380 168.0505770  54.3211840  36.2327380
 168.1572520  55.2215570  36.5396140 167.1398130  54.2729810  35.9422030
 165.6988930  56.2430850  41.4779970 166.3799040  56.5069220  42.0967370
 165.3836980  55.4031720  41.8117980 169.8913500  57.2898210  40.5652560
 170.3991720  57.7879180  41.2057580 170.4226740  56.5133410  40.3891920
 168.1749600  51.9296770  44.8315980 168.1768040  52.4469160  44.0261880
 167.3453910  51.4526950  44.8085910 169.4252450  61.5691950  43.0089480
 169.0921830  62.1960870  43.6510550 169.6019130  62.0953830  42.2291150
 167.8564930  53.6406730  42.8386430 168.1981740  54.4848780  42.5440300
 166.9180740  53.7890470  42.9551770 168.6371550  63.5372750  44.8238660
 169.2545550  64.2123830  44.5423110 167.7764670  63.9460730  44.7326160
 163.9303890  62.7272610  33.7045510 163.5531870  63.2159710  32.9730410
 164.1876960  63.3997890  34.3352040 171.5392820  51.1289000  39.1631020
 171.8467800  50.5735890  38.4466520 170.6093520  51.2633460  38.9804010
 173.9273580  59.1937830  35.8991140 173.0002860  59.1275210  36.1279610
 174.0798400  60.1317960  35.7846380 173.9142660  55.4654830  32.8958300
 172.9746330  55.6268790  32.9810760 174.2325920  56.1840510  32.3494290
 169.5330220  59.7202570  38.6810870 169.1287220  59.0079820  38.1856770
 169.6193340  59.3755810  39.5698910 170.0011920  63.4070130  40.8450080
 169.7040210  62.8015600  40.1657860 170.9511740  63.4447440  40.7339440
 168.2458840  56.4945780  42.4609910 168.7973430  56.6041120  41.6863160
 168.7602350  56.8683380  43.1765140 169.0930350  63.1451820  47.4957880
 168.1958880  63.3691790  47.7431280 169.1183220  63.2686760  46.5469280
 167.9201570  60.0165140  46.0715250 167.7809340  60.8887940  46.4402650
 167.0382930  59.6737950  45.9263190 174.2430950  64.9341010  37.3780380
 174.6826860  65.6765340  36.9635770 174.1817840  65.1767580  38.3019340
 169.7181920  65.9586840  48.2800400 169.6897350  66.3629790  47.4128830
 169.5546890  65.0297200  48.1172000 166.2334850  58.6147550  36.1817520
 166.1132450  59.3409640  35.5698790 165.9235740  57.8450460  35.7045430
 163.8720220  61.7862690  41.9886160 163.9500640  61.9211460  41.0441880
 164.4861900  61.0778580  42.1814280 165.1167850  63.4862880  38.3992340
 164.7095930  63.6277470  37.5445940 166.0080860  63.2023040  38.1963550
 169.3889510  67.7008660  36.5115010 169.2131990  66.7844200  36.2982810
 168.5345250  68.0595950  36.7512810 163.9279740  62.8276860  44.5280620
 164.0910780  62.3582220  43.7099990 164.3932190  62.3200420  45.1929460
 168.6998510  51.9582620  39.5641190 168.2566660  52.7392160  39.2325710
 169.2583500  52.2812510  40.2712130 172.9868320  54.8251140  45.1676510
 172.5247690  55.0334160  45.9796450 172.5846430  54.0110490  44.8647180
 171.8157330  51.5793320  34.4447020 171.1911510  51.5753190  35.1700330
 171.7287450  50.7124280  34.0482990 170.7374410  52.5029950  41.4230790
 171.0346740  53.4092780  41.3422810 171.2859970  52.0148730  40.8090360
 168.4912730  57.0816190  37.2922440 168.2653650  56.8653360  38.1969060
 167.7105260  57.5144650  36.9468410 170.9311940  57.9801770  47.9582710
 170.8355540  57.0396500  47.8083110 171.7743920  58.2016840  47.5630780
 174.3275360  55.7243100  37.9216370 174.7204930  56.0415300  37.1085060
 174.6892210  54.8454980  38.0360890 166.0622480  54.3915440  46.1116490
 165.6685870  55.2390650  46.3189270 165.3740880  53.7541810  46.3025130
 172.6367530  54.4750410  49.1813230 171.9465850  54.2822610  49.8159320
 173.3799830  54.7585050  49.7137530 163.3639530  52.3143900  40.1446570
 163.0752580  52.8846760  40.8571550 164.1085290  51.8348350  40.5077800
 163.5509760  56.2564020  31.3549290 163.4684430  57.1994780  31.4964280
 163.1992820  56.1138930  30.4761640 171.3507890  54.9903050  40.4219640
 171.3543950  54.5493000  39.5724180 172.2459010  55.3120380  40.5291460
 167.2010270  54.8729540  39.3813850 166.8610320  55.3504770  40.1380900
 166.4387590  54.4194660  39.0214950 171.4128040  55.9915130  33.4126400
 171.5340860  55.9501610  34.3612220 171.0276550  56.8539280  33.2573130
 170.4249540  58.3016270  32.8109700 169.8566440  57.8534520  32.1845610
 171.1338540  58.6609050  32.2774850 165.5018720  62.2028290  46.6876430
 165.1173510  61.5621960  47.2859390 165.8130910  62.9064410  47.2571160
 171.6515860  59.0504830  42.1685050 172.0185990  58.5763400  42.9146390
 171.4620920  59.9246400  42.5093390 164.5156350  53.7948520  38.2978520
 164.2303270  53.4304190  39.1357140 164.4535210  53.0628980  37.6841660
 169.4415230  58.0913470  44.4869260 169.1372300  58.9705450  44.7119620
 170.3961690  58.1513260  44.5226700 174.1894940  52.6877780  35.0191890
 173.3759550  52.1890950  34.9437200 173.9956890  53.5276030  34.6028240
 174.1103800  61.3648880  46.7631500 174.0441110  60.4444550  46.5089090
 173.4808940  61.4624320  47.4776140 168.0134420  61.9654840  38.7214920
 168.5313090  61.1623100  38.6671810 167.5618440  61.9033980  39.5631750
 172.9003920  63.2321120  33.9942220 173.2419620  63.9763350  33.4985540
 172.0716630  63.5452240  34.3567050 165.4978960  58.9316210  45.6340620
 165.1393900  59.5970060  46.2213960 165.2033520  58.0999760  46.0053240
 168.6992080  59.3900450  48.5180170 168.3992220  59.5357630  47.6207990
 169.4703320  58.8305740  48.4253560 174.0420530  64.1869450  46.5135300
 174.0565070  63.2550410  46.2954210 173.3345630  64.2729210  47.1525070
 171.8694610  63.3134650  36.7658140 172.5565740  63.8603860  37.1465730
 171.0827030  63.8575380  36.8007750 164.0087010  58.9307470  32.2575220
 164.8781860  59.2132270  32.5411140 163.5177330  59.7443340  32.1424030
 171.1721820  60.3180680  36.3783500 171.6284600  61.1285930  36.6043690
 170.8210030  60.0003820  37.2101990 173.4754430  65.8287020  43.6075800
 174.1196650  66.0346400  44.2849220 173.8383870  65.0675420  43.1546650
 167.0733600  50.6618330  36.8506020 166.9448230  50.6536230  37.7990940
 166.2495620  51.0001420  36.4997030 164.3758260  68.1434850  32.8236850
 164.7355900  68.7424190  32.1694120 164.2350600  68.6894740  33.5971880
 164.0727530  52.4209450  46.3112720 163.3586050  52.6206370  46.9165330
 164.4922570  51.6449020  46.6827520 164.3600120  66.4089710  47.2979250
 164.4691240  65.4684450  47.1574640 163.7080680  66.6744460  46.6492980
 172.3512710  64.6805600  48.6977370 172.0309580  63.9614840  49.2423060
 171.6771070  65.3560670  48.7713430 170.3926880  65.5266050  33.6410520
 170.3836980  66.2595740  33.0255030 169.4725240  65.2797630  33.7337480
 165.9933520  60.7480940  34.3857280 165.3861470  61.4879840  34.3952580
 166.4682870  60.8380300  33.5595480 173.3786480  65.5894290  32.3035710
 173.4798460  65.3858280  31.3737690 172.4788220  65.3352570  32.5083490
 170.9012370  56.1474650  36.2859610 170.1928520  56.6160990  36.7273220
 171.1856850  55.4896660  36.9204800 172.5268300  57.5671350  44.2852140
 173.0253550  58.0417170  44.9503990 172.6691250  56.6434870  44.4922170
 172.0204590  68.1080610  36.9983380 172.2746090  68.0702000  36.0762750
 171.0717070  67.9813940  36.9911630 169.1047390  54.4559730  33.6610320
 169.9537920  54.8929880  33.5950510 168.7378660  54.7679990  34.4882380
 168.0038810  60.7092090  32.1345850 168.7702080  60.5973450  32.6971280
 168.0813500  60.0130060  31.4822620 166.6985570  58.1417160  32.8178740
 166.7789160  57.1944670  32.9296140 167.5905320  58.4724040  32.9239400
 167.5000280  68.2912550  39.9213280 168.2362760  67.7428010  40.1921850
 167.8841200  69.1568560  39.7819270 164.3845760  64.3586120  35.7954790
 163.4585540  64.6007260  35.7860200 164.8502190  65.1860380  35.6739540
 166.5058560  67.4758620  49.1098860 167.3071290  67.7970670  49.5234260
 165.9910380  67.1154200  49.8318770 170.6102590  67.4642860  31.7438850
 171.4031200  67.7531690  31.2920640 170.0906940  67.0335030  31.0651330
 164.2256370  59.9632080  48.0534910 164.7295390  59.3839360  48.6251140
 163.4863790  60.2472310  48.5911280 171.1279990  62.6846270  31.6081200
 171.0230630  62.0698620  32.3342580 170.9604210  62.1612160  30.8244210
 171.2794310  61.3703070  47.5870430 170.5139980  61.9388070  47.5025100
 171.4610270  61.0779280  46.6938660 166.2579450  58.1061670  48.9484980
 166.2984790  57.8075540  49.8570210 167.1124950  58.5069280  48.7892500
 170.0357840  60.7057220  34.1088490 170.4574260  60.5397090  34.9519880
 170.1608680  59.8957450  33.6143630 168.1985260  56.6853770  46.9159470
 167.6681720  56.1944720  46.2882810 168.8673330  57.1137970  46.3817400
 172.5485480  59.7294830  31.3565590 173.0691140  59.0143850  30.9906740
 173.1953880  60.3680700  31.6566100 168.6857560  53.6516140  46.9956760
 168.5914430  53.0336890  46.2707630 168.1054950  54.3782430  46.7686670
 171.4519000  52.2089380  44.0284150 171.0036300  52.2313640  43.1829700
 170.8184200  51.8108400  44.6254450 171.8578550  61.1043710  44.6496590
 172.2766660  61.9476440  44.4772830 170.9387180  61.2415750  44.4203370
 168.9316740  56.7790450  31.0546650 168.7305800  55.9157810  31.4159990
 168.7608790  56.6923810  30.1168250 169.7085970  67.4096720  45.7654320
 169.1707060  68.1342780  45.4463020 169.9619930  66.9327060  44.9751660
 170.9611220  55.3781240  47.2910250 171.5510910  55.0697090  47.9788070
 170.1431460  54.9060990  47.4470150 167.7299540  53.8791070  31.0424530
 168.0325440  53.8858500  30.1343680 168.4694130  53.5288930  31.5392190
 172.5648180  68.6447930  46.0240970 172.4906880  69.5483070  46.3313340
 171.6627020  68.3259830  45.9963040 170.9484470  52.8225690  32.0280730
 170.6006470  52.1449680  31.4483180 171.1497240  52.3615200  32.8424120
 173.1133510  67.8106440  33.6467330 174.0084300  68.1491410  33.6686090
 173.1451140  67.0885850  33.0191610 166.7529670  63.1833490  31.8754330
 167.1904540  63.7263160  32.5311910 167.2377400  62.3580440  31.8850670
 163.9675470  65.9722520  39.3274590 164.2978480  65.1043580  39.0953230
 164.3966470  66.1781040  40.1579550 168.5637390  64.3031530  36.9876560
 168.2632930  64.1796500  37.8880470 168.4574880  63.4440120  36.5792290
 164.4565680  66.8393110  42.0656220 164.0196670  67.0193910  42.8980370
 165.0243360  67.5967730  41.9237940 164.2890110  59.3513340  38.4245100
 163.6338950  59.0824980  37.7804800 165.1268060  59.2417820  37.9747080
 165.3266040  59.7365910  42.9648440 165.6939080  59.6493310  43.8444460
 164.7576860  58.9732460  42.8655300 164.8782040  56.6475000  46.8706860
 163.9838090  56.6141760  47.2100570 165.4179590  56.8461790  47.6358110
 163.5028190  56.5612270  34.3670430 162.5992270  56.8242470  34.1922090
 163.9868810  56.8323440  33.5870390 166.0455400  55.6177810  32.2764810
 166.7547100  55.1961030  31.7912090 165.3295340  55.6853040  31.6448160
 165.6929560  51.6717140  31.3167460 166.4157690  52.2126080  31.6348680
 165.9654080  51.3980560  30.4409000 165.3821750  50.9223330  41.2190080
 166.0297940  50.3720710  40.7785240 165.8023590  51.1766480  42.0405890
 165.1353750  51.0779000  43.9615400 164.7868570  51.5342820  44.7273580
 164.8041450  50.1836130  44.0437830 166.7418120  64.2498600  48.1268590
 166.6987750  63.8791510  49.0083050 166.8729130  65.1876170  48.2670410
 170.4424150  65.8058190  43.7278310 170.2015510  66.0732750  42.8408830
 171.3826790  65.9763920  43.7829170 172.6478570  52.2690880  47.4834820
 172.5867460  52.8612710  48.2330230 173.5878950  52.1616840  47.3385080
 165.8074390  50.6055200  47.2366170 166.3557380  50.4243250  46.4732280
 165.8729700  49.8149310  47.7722480 166.5806150  67.1960850  45.2466370
 165.9866470  67.0645550  45.9856410 166.5729990  66.3598990  44.7808470
 166.2118380  64.5619230  44.1974410 165.4852440  63.9424520  44.1300360
 166.2727530  64.9559840  43.3272490 169.8163480  66.7764230  40.9823820
 170.3328500  66.1651590  40.4572080 170.4660860  67.2793010  41.4734830
 172.5558980  67.6672720  41.8092800 172.8436790  67.4127020  40.9325810
 173.0682200  67.1150080  42.3998370 173.7735990  51.4062920  42.3889310
 172.9907780  51.8808420  42.6686070 173.4798920  50.5017750  42.2802490
 164.4948380  67.8793620  37.4071170 164.3270420  67.2464300  38.1053060
 163.6282890  68.0853020  37.0565360 165.1176400  51.7110400  34.9103030
 165.8755760  51.8239280  34.3367060 164.6553570  52.5479600  34.8646460
 171.6590210  53.8249670  37.9005340 170.8464720  53.4506560  37.5601220
 172.1631850  53.0694750  38.2026530 166.1011080  66.5726850  34.8521310
 165.5758700  66.9534880  34.1483270 166.0255660  67.1977620  35.5731020
 167.4901550  52.2374450  33.4505000 168.0194310  51.4504250  33.3212950
 168.1229870  52.9165640  33.6840530 169.6839390  51.9749590  36.5050390
 169.0542130  51.2736900  36.6720520 169.1444530  52.7353720  36.2883550
 172.6231340  68.5888820  49.1761000 173.5498650  68.3533090  49.2196960
 172.6081770  69.4160820  48.6947030 169.8094950  51.2533570  48.9402880
 169.5279220  51.7567170  48.1763700 170.1914650  50.4555320  48.5745010
 168.7004050  68.5209230  33.7270560 169.4322870  68.2368510  33.1794450
 168.9597720  68.2822510  34.6169940 167.8618840  64.6373960  33.7316890
 167.2327720  65.1059060  34.2802720 167.9766670  63.7923180  34.1663080
 173.4486600  60.4658640  21.7627360 172.6728700  59.9859080  22.0525930
 174.0999530  59.7864290  21.5883520 167.4652430  60.7778450  22.6403120
 166.6337310  60.5227160  23.0399630 168.0733410  60.8489220  23.3761040
 167.4453690  64.8118540  22.8361140 167.7481730  63.9216280  22.6571360
 168.1897280  65.3688760  22.6083390 165.8744380  55.7380340  16.4245510
 164.9861080  56.0796310  16.3225390 166.1585570  55.5380660  15.5326340
 163.8377390  58.3385990  22.3085210 164.4093500  57.5708190  22.3088850
 163.8378930  58.6374750  21.3991820 173.6957340  67.1576840  20.1630480
 173.0768780  67.6134340  19.5924920 174.5509120  67.3128300  19.7620180
 172.8895590  63.1415830  21.7697520 172.8203870  62.2005770  21.6086650
 173.6515450  63.2317240  22.3420090 165.0802260  53.7470350  24.0954140
 164.9005100  52.8496100  24.3756900 164.6782340  54.2942220  24.7701090
 173.9200760  55.9486210  21.9966450 174.2965580  55.0758090  21.8840120
 173.8220270  56.2844910  21.1056890 168.0505770  54.3211840  17.4583890
 168.1572520  55.2215570  17.7652650 167.1398130  54.2729810  17.1678540
 165.6988930  56.2430850  22.7036480 166.3799040  56.5069220  23.3223880
 165.3836980  55.4031720  23.0374490 169.8913500  57.2898210  21.7909070
 170.3991720  57.7879180  22.4314090 170.4226740  56.5133410  21.6148430
 168.1749600  51.9296770  26.0572490 168.1768040  52.4469160  25.2518390
 167.3453910  51.4526950  26.0342420 169.4252450  61.5691950  24.2345990
 169.0921830  62.1960870  24.8767060 169.6019130  62.0953830  23.4547660
 167.8564930  53.6406730  24.0642940 168.1981740  54.4848780  23.7696810
 166.9180740  53.7890470  24.1808280 168.6371550  63.5372750  26.0495170
 169.2545550  64.2123830  25.7679620 167.7764670  63.9460730  25.9582670
 163.9303890  62.7272610  14.9302020 163.5531870  63.2159710  14.1986920
 164.1876960  63.3997890  15.5608550 171.5392820  51.1289000  20.3887530
 171.8467800  50.5735890  19.6723030 170.6093520  51.2633460  20.2060520
 173.9273580  59.1937830  17.1247650 173.0002860  59.1275210  17.3536120
 174.0798400  60.1317960  17.0102890 173.9142660  55.4654830  14.1214810
 172.9746330  55.6268790  14.2067270 174.2325920  56.1840510  13.5750800
 169.5330220  59.7202570  19.9067380 169.1287220  59.0079820  19.4113280
 169.6193340  59.3755810  20.7955420 170.0011920  63.4070130  22.0706590
 169.7040210  62.8015600  21.3914370 170.9511740  63.4447440  21.9595950
 168.2458840  56.4945780  23.6866420 168.7973430  56.6041120  22.9119670
 168.7602350  56.8683380  24.4021650 169.0930350  63.1451820  28.7214390
 168.1958880  63.3691790  28.9687790 169.1183220  63.2686760  27.7725790
 167.9201570  60.0165140  27.2971760 167.7809340  60.8887940  27.6659160
 167.0382930  59.6737950  27.1519700 174.2430950  64.9341010  18.6036890
 174.6826860  65.6765340  18.1892280 174.1817840  65.1767580  19.5275850
 169.7181920  65.9586840  29.5056910 169.6897350  66.3629790  28.6385340
 169.5546890  65.0297200  29.3428510 166.2334850  58.6147550  17.4074030
 166.1132450  59.3409640  16.7955300 165.9235740  57.8450460  16.9301940
 163.8720220  61.7862690  23.2142670 163.9500640  61.9211460  22.2698390
 164.4861900  61.0778580  23.4070790 165.1167850  63.4862880  19.6248850
 164.7095930  63.6277470  18.7702450 166.0080860  63.2023040  19.4220060
 169.3889510  67.7008660  17.7371520 169.2131990  66.7844200  17.5239320
 168.5345250  68.0595950  17.9769320 163.9279740  62.8276860  25.7537130
 164.0910780  62.3582220  24.9356500 164.3932190  62.3200420  26.4185970
 168.6998510  51.9582620  20.7897700 168.2566660  52.7392160  20.4582220
 169.2583500  52.2812510  21.4968640 172.9868320  54.8251140  26.3933020
 172.5247690  55.0334160  27.2052960 172.5846430  54.0110490  26.0903690
 171.8157330  51.5793320  15.6703530 171.1911510  51.5753190  16.3956840
 171.7287450  50.7124280  15.2739500 170.7374410  52.5029950  22.6487300
 171.0346740  53.4092780  22.5679320 171.2859970  52.0148730  22.0346870
 168.4912730  57.0816190  18.5178950 168.2653650  56.8653360  19.4225570
 167.7105260  57.5144650  18.1724920 170.9311940  57.9801770  29.1839220
 170.8355540  57.0396500  29.0339620 171.7743920  58.2016840  28.7887290
 174.3275360  55.7243100  19.1472880 174.7204930  56.0415300  18.3341570
 174.6892210  54.8454980  19.2617400 166.0622480  54.3915440  27.3373000
 165.6685870  55.2390650  27.5445780 165.3740880  53.7541810  27.5281640
 172.6367530  54.4750410  30.4069740 171.9465850  54.2822610  31.0415830
 173.3799830  54.7585050  30.9394040 163.3639530  52.3143900  21.3703080
 163.0752580  52.8846760  22.0828060 164.1085290  51.8348350  21.7334310
 163.5509760  56.2564020  12.5805800 163.4684430  57.1994780  12.7220790
 163.1992820  56.1138930  11.7018150 171.3507890  54.9903050  21.6476150
 171.3543950  54.5493000  20.7980690 172.2459010  55.3120380  21.7547970
 167.2010270  54.8729540  20.6070360 166.8610320  55.3504770  21.3637410
 166.4387590  54.4194660  20.2471460 171.4128040  55.9915130  14.6382910
 171.5340860  55.9501610  15.5868730 171.0276550  56.8539280  14.4829640
 170.4249540  58.3016270  14.0366210 169.8566440  57.8534520  13.4102120
 171.1338540  58.6609050  13.5031360 165.5018720  62.2028290  27.9132940
 165.1173510  61.5621960  28.5115900 165.8130910  62.9064410  28.4827670
 171.6515860  59.0504830  23.3941560 172.0185990  58.5763400  24.1402900
 171.4620920  59.9246400  23.7349900 164.5156350  53.7948520  19.5235030
 164.2303270  53.4304190  20.3613650 164.4535210  53.0628980  18.9098170
 169.4415230  58.0913470  25.7125770 169.1372300  58.9705450  25.9376130
 170.3961690  58.1513260  25.7483210 167.9697020  62.2974460  16.3092620
 167.1959280  61.7572080  16.1491340 168.6991650  61.7781070  15.9710380
 174.1894940  52.6877780  16.2448400 173.3759550  52.1890950  16.1693710
 173.9956890  53.5276030  15.8284750 174.1103800  61.3648880  27.9888010
 174.0441110  60.4444550  27.7345600 173.4808940  61.4624320  28.7032650
 168.0134420  61.9654840  19.9471430 168.5313090  61.1623100  19.8928320
 167.5618440  61.9033980  20.7888260 172.9003920  63.2321120  15.2198730
 173.2419620  63.9763350  14.7242050 172.0716630  63.5452240  15.5823560
 165.4978960  58.9316210  26.8597130 165.1393900  59.5970060  27.4470470
 165.2033520  58.0999760  27.2309750 168.6992080  59.3900450  29.7436680
 168.3992220  59.5357630  28.8464500 169.4703320  58.8305740  29.6510070
 174.0420530  64.1869450  27.7391810 174.0565070  63.2550410  27.5210720
 173.3345630  64.2729210  28.3781580 171.8694610  63.3134650  17.9914650
 172.5565740  63.8603860  18.3722240 171.0827030  63.8575380  18.0264260
 164.0087010  58.9307470  13.4831730 164.8781860  59.2132270  13.7667650
 163.5177330  59.7443340  13.3680540 171.1721820  60.3180680  17.6040010
 171.6284600  61.1285930  17.8300200 170.8210030  60.0003820  18.4358500
 173.4754430  65.8287020  24.8332310 174.1196650  66.0346400  25.5105730
 173.8383870  65.0675420  24.3803160 167.0733600  50.6618330  18.0762530
 166.9448230  50.6536230  19.0247450 166.2495620  51.0001420  17.7253540
 164.3758260  68.1434850  14.0493360 164.7355900  68.7424190  13.3950630
 164.2350600  68.6894740  14.8228390 164.0727530  52.4209450  27.5369230
 163.3586050  52.6206370  28.1421840 164.4922570  51.6449020  27.9084030
 164.3600120  66.4089710  28.5235760 164.4691240  65.4684450  28.3831150
 163.7080680  66.6744460  27.8749490 172.3512710  64.6805600  29.9233880
 172.0309580  63.9614840  30.4679570 171.6771070  65.3560670  29.9969940
 170.3926880  65.5266050  14.8667030 170.3836980  66.2595740  14.2511540
 169.4725240  65.2797630  14.9593990 165.9933520  60.7480940  15.6113790
 165.3861470  61.4879840  15.6209090 166.4682870  60.8380300  14.7851990
 173.3786480  65.5894290  13.5292220 173.4798460  65.3858280  12.5994200
 172.4788220  65.3352570  13.7340000 170.9012370  56.1474650  17.5116120
 170.1928520  56.6160990  17.9529730 171.1856850  55.4896660  18.1461310
 172.5268300  57.5671350  25.5108650 173.0253550  58.0417170  26.1760500
 172.6691250  56.6434870  25.7178680 172.0204590  68.1080610  18.2239890
 172.2746090  68.0702000  17.3019260 171.0717070  67.9813940  18.2168140
 169.1047390  54.4559730  14.8866830 169.9537920  54.8929880  14.8207020
 168.7378660  54.7679990  15.7138890 168.0038810  60.7092090  13.3602360
 168.7702080  60.5973450  13.9227790 168.0813500  60.0130060  12.7079130
 166.6985570  58.1417160  14.0435250 166.7789160  57.1944670  14.1552650
 167.5905320  58.4724040  14.1495910 167.5000280  68.2912550  21.1469790
 168.2362760  67.7428010  21.4178360 167.8841200  69.1568560  21.0075780
 164.3845760  64.3586120  17.0211300 163.4585540  64.6007260  17.0116710
 164.8502190  65.1860380  16.8996050 166.5058560  67.4758620  30.3355370
 167.3071290  67.7970670  30.7490770 165.9910380  67.1154200  31.0575280
 170.6102590  67.4642860  12.9695360 171.4031200  67.7531690  12.5177150
 170.0906940  67.0335030  12.2907840 164.2256370  59.9632080  29.2791420
 164.7295390  59.3839360  29.8507650 163.4863790  60.2472310  29.8167790
 171.1279990  62.6846270  12.8337710 171.0230630  62.0698620  13.5599090
 170.9604210  62.1612160  12.0500720 171.2794310  61.3703070  28.8126940
 170.5139980  61.9388070  28.7281610 171.4610270  61.0779280  27.9195170
 166.2579450  58.1061670  30.1741490 166.2984790  57.8075540  31.0826720
 167.1124950  58.5069280  30.0149010 170.0357840  60.7057220  15.3345000
 170.4574260  60.5397090  16.1776390 170.1608680  59.8957450  14.8400140
 168.1985260  56.6853770  28.1415980 167.6681720  56.1944720  27.5139320
 168.8673330  57.1137970  27.6073910 172.5485480  59.7294830  12.5822100
 173.0691140  59.0143850  12.2163250 173.1953880  60.3680700  12.8822610
 168.6857560  53.6516140  28.2213270 168.5914430  53.0336890  27.4964140
 168.1054950  54.3782430  27.9943180 171.4519000  52.2089380  25.2540660
 171.0036300  52.2313640  24.4086210 170.8184200  51.8108400  25.8510960
 171.8578550  61.1043710  25.8753100 172.2766660  61.9476440  25.7029340
 170.9387180  61.2415750  25.6459880 168.9316740  56.7790450  12.2803160
 168.7305800  55.9157810  12.6416500 168.7608790  56.6923810  11.3424760
 169.7085970  67.4096720  26.9910830 169.1707060  68.1342780  26.6719530
 169.9619930  66.9327060  26.2008170 170.9611220  55.3781240  28.5166760
 171.5510910  55.0697090  29.2044580 170.1431460  54.9060990  28.6726660
 167.7299540  53.8791070  12.2681040 168.0325440  53.8858500  11.3600190
 168.4694130  53.5288930  12.7648700 172.5648180  68.6447930  27.2497480
 172.4906880  69.5483070  27.5569850 171.6627020  68.3259830  27.2219550
 170.9484470  52.8225690  13.2537240 170.6006470  52.1449680  12.6739690
 171.1497240  52.3615200  14.0680630 173.1133510  67.8106440  14.8723840
 174.0084300  68.1491410  14.8942600 173.1451140  67.0885850  14.2448120
 166.7529670  63.1833490  13.1010840 167.1904540  63.7263160  13.7568420
 167.2377400  62.3580440  13.1107180 163.9675470  65.9722520  20.5531100
 164.2978480  65.1043580  20.3209740 164.3966470  66.1781040  21.3836060
 168.5637390  64.3031530  18.2133070 168.2632930  64.1796500  19.1136980
 168.4574880  63.4440120  17.8048800 164.4565680  66.8393110  23.2912730
 164.0196670  67.0193910  24.1236880 165.0243360  67.5967730  23.1494450
 164.2890110  59.3513340  19.6501610 163.6338950  59.0824980  19.0061310
 165.1268060  59.2417820  19.2003590 165.3266040  59.7365910  24.1904950
 165.6939080  59.6493310  25.0700970 164.7576860  58.9732460  24.0911810
 164.8782040  56.6475000  28.0963370 163.9838090  56.6141760  28.4357080
 165.4179590  56.8461790  28.8614620 163.5028190  56.5612270  15.5926940
 162.5992270  56.8242470  15.4178600 163.9868810  56.8323440  14.8126900
 166.0455400  55.6177810  13.5021320 166.7547100  55.1961030  13.0168600
 165.3295340  55.6853040  12.8704670 165.6929560  51.6717140  12.5423970
 166.4157690  52.2126080  12.8605190 165.9654080  51.3980560  11.6665510
 165.3821750  50.9223330  22.4446590 166.0297940  50.3720710  22.0041750
 165.8023590  51.1766480  23.2662400 165.1353750  51.0779000  25.1871910
 164.7868570  51.5342820  25.9530090 164.8041450  50.1836130  25.2694340
 166.7418120  64.2498600  29.3525100 166.6987750  63.8791510  30.2339560
 166.8729130  65.1876170  29.4926920 170.4424150  65.8058190  24.9534820
 170.2015510  66.0732750  24.0665340 171.3826790  65.9763920  25.0085680
 172.6478570  52.2690880  28.7091330 172.5867460  52.8612710  29.4586740
 173.5878950  52.1616840  28.5641590 165.8074390  50.6055200  28.4622680
 166.3557380  50.4243250  27.6988790 165.8729700  49.8149310  28.9978990
 166.5806150  67.1960850  26.4722880 165.9866470  67.0645550  27.2112920
 166.5729990  66.3598990  26.0064980 166.2118380  64.5619230  25.4230920
 165.4852440  63.9424520  25.3556870 166.2727530  64.9559840  24.5529000
 169.8163480  66.7764230  22.2080330 170.3328500  66.1651590  21.6828590
 170.4660860  67.2793010  22.6991340 172.5558980  67.6672720  23.0349310
 172.8436790  67.4127020  22.1582320 173.0682200  67.1150080  23.6254880
 173.7735990  51.4062920  23.6145820 172.9907780  51.8808420  23.8942580
 173.4798920  50.5017750  23.5059000 164.4948380  67.8793620  18.6327680
 164.3270420  67.2464300  19.3309570 163.6282890  68.0853020  18.2821870
 165.1176400  51.7110400  16.1359540 165.8755760  51.8239280  15.5623570
 164.6553570  52.5479600  16.0902970 171.6590210  53.8249670  19.1261850
 170.8464720  53.4506560  18.7857730 172.1631850  53.0694750  19.4283040
 166.1011080  66.5726850  16.0777820 165.5758700  66.9534880  15.3739780
 166.0255660  67.1977620  16.7987530 167.4901550  52.2374450  14.6761510
 168.0194310  51.4504250  14.5469460 168.1229870  52.9165640  14.9097040
 169.6839390  51.9749590  17.7306900 169.0542130  51.2736900  17.8977030
 169.1444530  52.7353720  17.5140060 172.6231340  68.5888820  30.4017510
 173.5498650  68.3533090  30.4453470 172.6081770  69.4160820  29.9203540
 169.8094950  51.2533570  30.1659390 169.5279220  51.7567170  29.4020210
 170.1914650  50.4555320  29.8001520 168.7004050  68.5209230  14.9527070
 169.4322870  68.2368510  14.4050960 168.9597720  68.2822510  15.8426450
 167.8618840  64.6373960  14.9573400 167.2327720  65.1059060  15.5059230
 167.9766670  63.7923180  15.3919590 173.4486600  60.4658640   2.9883870
 172.6728700  59.9859080   3.2782440 174.0999530  59.7864290   2.8140030
 167.4652430  60.7778450   3.8659630 166.6337310  60.5227160   4.2656140
 168.0733410  60.8489220   4.6017550 167.4453690  64.8118540   4.0617650
 167.7481730  63.9216280   3.8827870 168.1897280  65.3688760   3.8339900
 163.8377390  58.3385990   3.5341720 164.4093500  57.5708190   3.5345360
 163.8378930  58.6374750   2.6248330 172.8895590  63.1415830   2.9954030
 172.8203870  62.2005770   2.8343160 173.6515450  63.2317240   3.5676600
 165.0802260  53.7470350   5.3210650 164.9005100  52.8496100   5.6013410
 164.6782340  54.2942220   5.9957600 173.9200760  55.9486210   3.2222960
 174.2965580  55.0758090   3.1096630 173.8220270  56.2844910   2.3313400
 165.6988930  56.2430850   3.9292990 166.3799040  56.5069220   4.5480390
 165.3836980  55.4031720   4.2631000 169.8913500  57.2898210   3.0165580
 170.3991720  57.7879180   3.6570600 170.4226740  56.5133410   2.8404940
 168.1749600  51.9296770   7.2829000 168.1768040  52.4469160   6.4774900
 167.3453910  51.4526950   7.2598930 169.4252450  61.5691950   5.4602500
 169.0921830  62.1960870   6.1023570 169.6019130  62.0953830   4.6804170
 167.8564930  53.6406730   5.2899450 168.1981740  54.4848780   4.9953320
 166.9180740  53.7890470   5.4064790 168.6371550  63.5372750   7.2751680
 169.2545550  64.2123830   6.9936130 167.7764670  63.9460730   7.1839180
 170.0011920  63.4070130   3.2963100 169.7040210  62.8015600   2.6170880
 170.9511740  63.4447440   3.1852460 168.2458840  56.4945780   4.9122930
 168.7973430  56.6041120   4.1376180 168.7602350  56.8683380   5.6278160
 169.0930350  63.1451820   9.9470900 168.1958880  63.3691790  10.1944300
 169.1183220  63.2686760   8.9982300 167.9201570  60.0165140   8.5228270
 167.7809340  60.8887940   8.8915670 167.0382930  59.6737950   8.3776210
 169.7181920  65.9586840  10.7313420 169.6897350  66.3629790   9.8641850
 169.5546890  65.0297200  10.5685020 163.8720220  61.7862690   4.4399180
 163.9500640  61.9211460   3.4954900 164.4861900  61.0778580   4.6327300
 163.9279740  62.8276860   6.9793640 164.0910780  62.3582220   6.1613010
 164.3932190  62.3200420   7.6442480 168.6998510  51.9582620   2.0154210
 168.2566660  52.7392160   1.6838730 169.2583500  52.2812510   2.7225150
 172.9868320  54.8251140   7.6189530 172.5247690  55.0334160   8.4309470
 172.5846430  54.0110490   7.3160200 170.7374410  52.5029950   3.8743810
 171.0346740  53.4092780   3.7935830 171.2859970  52.0148730   3.2603380
 170.9311940  57.9801770  10.4095730 170.8355540  57.0396500  10.2596130
 171.7743920  58.2016840  10.0143800 166.0622480  54.3915440   8.5629510
 165.6685870  55.2390650   8.7702290 165.3740880  53.7541810   8.7538150
 172.6367530  54.4750410  11.6326250 171.9465850  54.2822610  12.2672340
 173.3799830  54.7585050  12.1650550 163.3639530  52.3143900   2.5959590
 163.0752580  52.8846760   3.3084570 164.1085290  51.8348350   2.9590820
 171.3507890  54.9903050   2.8732660 171.3543950  54.5493000   2.0237200
 172.2459010  55.3120380   2.9804480 167.2010270  54.8729540   1.8326870
 166.8610320  55.3504770   2.5893920 166.4387590  54.4194660   1.4727970
 165.5018720  62.2028290   9.1389450 165.1173510  61.5621960   9.7372410
 165.8130910  62.9064410   9.7084180 171.6515860  59.0504830   4.6198070
 172.0185990  58.5763400   5.3659410 171.4620920  59.9246400   4.9606410
 169.4415230  58.0913470   6.9382280 169.1372300  58.9705450   7.1632640
 170.3961690  58.1513260   6.9739720 174.1103800  61.3648880   9.2144520
 174.0441110  60.4444550   8.9602110 173.4808940  61.4624320   9.9289160
 165.4978960  58.9316210   8.0853640 165.1393900  59.5970060   8.6726980
 165.2033520  58.0999760   8.4566260 168.6992080  59.3900450  10.9693190
 168.3992220  59.5357630  10.0721010 169.4703320  58.8305740  10.8766580
 174.0420530  64.1869450   8.9648320 174.0565070  63.2550410   8.7467230
 173.3345630  64.2729210   9.6038090 173.4754430  65.8287020   6.0588820
 174.1196650  66.0346400   6.7362240 173.8383870  65.0675420   5.6059670
 164.0727530  52.4209450   8.7625740 163.3586050  52.6206370   9.3678350
 164.4922570  51.6449020   9.1340540 164.3600120  66.4089710   9.7492270
 164.4691240  65.4684450   9.6087660 163.7080680  66.6744460   9.1006000
 172.3512710  64.6805600  11.1490390 172.0309580  63.9614840  11.6936080
 171.6771070  65.3560670  11.2226450 172.5268300  57.5671350   6.7365160
 173.0253550  58.0417170   7.4017010 172.6691250  56.6434870   6.9435190
 167.5000280  68.2912550   2.3726300 168.2362760  67.7428010   2.6434870
 167.8841200  69.1568560   2.2332290 166.5058560  67.4758620  11.5611880
 167.3071290  67.7970670  11.9747280 165.9910380  67.1154200  12.2831790
 164.2256370  59.9632080  10.5047930 164.7295390  59.3839360  11.0764160
 163.4863790  60.2472310  11.0424300 171.2794310  61.3703070  10.0383450
 170.5139980  61.9388070   9.9538120 171.4610270  61.0779280   9.1451680
 166.2579450  58.1061670  11.3998000 166.2984790  57.8075540  12.3083230
 167.1124950  58.5069280  11.2405520 168.1985260  56.6853770   9.3672490
 167.6681720  56.1944720   8.7395830 168.8673330  57.1137970   8.8330420
 168.6857560  53.6516140   9.4469780 168.5914430  53.0336890   8.7220650
 168.1054950  54.3782430   9.2199690 171.4519000  52.2089380   6.4797170
 171.0036300  52.2313640   5.6342720 170.8184200  51.8108400   7.0767470
 171.8578550  61.1043710   7.1009610 172.2766660  61.9476440   6.9285850
 170.9387180  61.2415750   6.8716390 169.7085970  67.4096720   8.2167340
 169.1707060  68.1342780   7.8976040 169.9619930  66.9327060   7.4264680
 170.9611220  55.3781240   9.7423270 171.5510910  55.0697090  10.4301090
 170.1431460  54.9060990   9.8983170 172.5648180  68.6447930   8.4753990
 172.4906880  69.5483070   8.7826360 171.6627020  68.3259830   8.4476060
 163.9675470  65.9722520   1.7787610 164.2978480  65.1043580   1.5466250
 164.3966470  66.1781040   2.6092570 164.4565680  66.8393110   4.5169240
 164.0196670  67.0193910   5.3493390 165.0243360  67.5967730   4.3750960
 165.3266040  59.7365910   5.4161460 165.6939080  59.6493310   6.2957480
 164.7576860  58.9732460   5.3168320 164.8782040  56.6475000   9.3219880
 163.9838090  56.6141760   9.6613590 165.4179590  56.8461790  10.0871130
 165.3821750  50.9223330   3.6703100 166.0297940  50.3720710   3.2298260
 165.8023590  51.1766480   4.4918910 165.1353750  51.0779000   6.4128420
 164.7868570  51.5342820   7.1786600 164.8041450  50.1836130   6.4950850
 166.7418120  64.2498600  10.5781610 166.6987750  63.8791510  11.4596070
 166.8729130  65.1876170  10.7183430 170.4424150  65.8058190   6.1791330
 170.2015510  66.0732750   5.2921850 171.3826790  65.9763920   6.2342190
 172.6478570  52.2690880   9.9347840 172.5867460  52.8612710  10.6843250
 173.5878950  52.1616840   9.7898100 165.8074390  50.6055200   9.6879190
 166.3557380  50.4243250   8.9245300 165.8729700  49.8149310  10.2235500
 166.5806150  67.1960850   7.6979390 165.9866470  67.0645550   8.4369430
 166.5729990  66.3598990   7.2321490 166.2118380  64.5619230   6.6487430
 165.4852440  63.9424520   6.5813380 166.2727530  64.9559840   5.7785510
 169.8163480  66.7764230   3.4336840 170.3328500  66.1651590   2.9085100
 170.4660860  67.2793010   3.9247850 172.5558980  67.6672720   4.2605820
 172.8436790  67.4127020   3.3838830 173.0682200  67.1150080   4.8511390
 173.7735990  51.4062920   4.8402330 172.9907780  51.8808420   5.1199090
 173.4798920  50.5017750   4.7315510 169.8094950  51.2533570  11.3915900
 169.5279220  51.7567170  10.6276720 170.1914650  50.4555320  11.0258030
 173.4486600  41.6915150  59.3114340 172.6728700  41.2115590  59.6012910
 174.0999530  41.0120800  59.1370500 165.8744380  36.9636850  53.9732490
 164.9861080  37.3052820  53.8712370 166.1585570  36.7637170  53.0813320
 163.8377390  39.5642500  59.8572190 164.4093500  38.7964700  59.8575830
 163.8378930  39.8631260  58.9478800 173.6957340  48.3833350  57.7117460
 173.0768780  48.8390850  57.1411900 174.5509120  48.5384810  57.3107160
 172.8895590  44.3672340  59.3184500 172.8203870  43.4262280  59.1573630
 173.6515450  44.4573750  59.8907070 173.9200760  37.1742720  59.5453430
 174.2965580  36.3014600  59.4327100 173.8220270  37.5101420  58.6543870
 168.0505770  35.5468350  55.0070870 168.1572520  36.4472080  55.3139630
 167.1398130  35.4986320  54.7165520 169.8913500  38.5154720  59.3396050
 170.3991720  39.0135690  59.9801070 170.4226740  37.7389920  59.1635410
 163.9303890  43.9529120  52.4789000 163.5531870  44.4416220  51.7473900
 164.1876960  44.6254400  53.1095530 171.5392820  32.3545510  57.9374510
 171.8467800  31.7992400  57.2210010 170.6093520  32.4889970  57.7547500
 173.9273580  40.4194340  54.6734630 173.0002860  40.3531720  54.9023100
 174.0798400  41.3574470  54.5589870 173.9142660  36.6911340  51.6701790
 172.9746330  36.8525300  51.7554250 174.2325920  37.4097020  51.1237780
 169.5330220  40.9459080  57.4554360 169.1287220  40.2336330  56.9600260
 169.6193340  40.6012320  58.3442400 170.0011920  44.6326640  59.6193570
 169.7040210  44.0272110  58.9401350 170.9511740  44.6703950  59.5082930
 174.2430950  46.1597520  56.1523870 174.6826860  46.9021850  55.7379260
 174.1817840  46.4024090  57.0762830 166.2334850  39.8404060  54.9561010
 166.1132450  40.5666150  54.3442280 165.9235740  39.0706970  54.4788920
 165.1167850  44.7119390  57.1735830 164.7095930  44.8533980  56.3189430
 166.0080860  44.4279550  56.9707040 169.3889510  48.9265170  55.2858500
 169.2131990  48.0100710  55.0726300 168.5345250  49.2852460  55.5256300
 168.6998510  33.1839130  58.3384680 168.2566660  33.9648670  58.0069200
 169.2583500  33.5069020  59.0455620 171.8157330  32.8049830  53.2190510
 171.1911510  32.8009700  53.9443820 171.7287450  31.9380790  52.8226480
 170.7374410  33.7286460  60.1974280 171.0346740  34.6349290  60.1166300
 171.2859970  33.2405240  59.5833850 168.4912730  38.3072700  56.0665930
 168.2653650  38.0909870  56.9712550 167.7105260  38.7401160  55.7211900
 174.3275360  36.9499610  56.6959860 174.7204930  37.2671810  55.8828550
 174.6892210  36.0711490  56.8104380 163.3639530  33.5400410  58.9190060
 163.0752580  34.1103270  59.6315040 164.1085290  33.0604860  59.2821290
 163.5509760  37.4820530  50.1292780 163.4684430  38.4251290  50.2707770
 163.1992820  37.3395440  49.2505130 171.3507890  36.2159560  59.1963130
 171.3543950  35.7749510  58.3467670 172.2459010  36.5376890  59.3034950
 167.2010270  36.0986050  58.1557340 166.8610320  36.5761280  58.9124390
 166.4387590  35.6451170  57.7958440 171.4128040  37.2171640  52.1869890
 171.5340860  37.1758120  53.1355710 171.0276550  38.0795790  52.0316620
 170.4249540  39.5272780  51.5853190 169.8566440  39.0791030  50.9589100
 171.1338540  39.8865560  51.0518340 164.5156350  35.0205030  57.0722010
 164.2303270  34.6560700  57.9100630 164.4535210  34.2885490  56.4585150
 167.9697020  43.5230970  53.8579600 167.1959280  42.9828590  53.6978320
 168.6991650  43.0037580  53.5197360 174.1894940  33.9134290  53.7935380
 173.3759550  33.4147460  53.7180690 173.9956890  34.7532540  53.3771730
 168.0134420  43.1911350  57.4958410 168.5313090  42.3879610  57.4415300
 167.5618440  43.1290490  58.3375240 172.9003920  44.4577630  52.7685710
 173.2419620  45.2019860  52.2729030 172.0716630  44.7708750  53.1310540
 171.8694610  44.5391160  55.5401630 172.5565740  45.0860370  55.9209220
 171.0827030  45.0831890  55.5751240 164.0087010  40.1563980  51.0318710
 164.8781860  40.4388780  51.3154630 163.5177330  40.9699850  50.9167520
 171.1721820  41.5437190  55.1526990 171.6284600  42.3542440  55.3787180
 170.8210030  41.2260330  55.9845480 167.0733600  31.8874840  55.6249510
 166.9448230  31.8792740  56.5734430 166.2495620  32.2257930  55.2740520
 164.3758260  49.3691360  51.5980340 164.7355900  49.9680700  50.9437610
 164.2350600  49.9151250  52.3715370 170.3926880  46.7522560  52.4154010
 170.3836980  47.4852250  51.7998520 169.4725240  46.5054140  52.5080970
 165.9933520  41.9737450  53.1600770 165.3861470  42.7136350  53.1696070
 166.4682870  42.0636810  52.3338970 173.3786480  46.8150800  51.0779200
 173.4798460  46.6114790  50.1481180 172.4788220  46.5609080  51.2826980
 170.9012370  37.3731160  55.0603100 170.1928520  37.8417500  55.5016710
 171.1856850  36.7153170  55.6948290 172.0204590  49.3337120  55.7726870
 172.2746090  49.2958510  54.8506240 171.0717070  49.2070450  55.7655120
 169.1047390  35.6816240  52.4353810 169.9537920  36.1186390  52.3694000
 168.7378660  35.9936500  53.2625870 168.0038810  41.9348600  50.9089340
 168.7702080  41.8229960  51.4714770 168.0813500  41.2386570  50.2566110
 166.6985570  39.3673670  51.5922230 166.7789160  38.4201180  51.7039630
 167.5905320  39.6980550  51.6982890 167.5000280  49.5169060  58.6956770
 168.2362760  48.9684520  58.9665340 167.8841200  50.3825070  58.5562760
 164.3845760  45.5842630  54.5698280 163.4585540  45.8263770  54.5603690
 164.8502190  46.4116890  54.4483030 170.6102590  48.6899370  50.5182340
 171.4031200  48.9788200  50.0664130 170.0906940  48.2591540  49.8394820
 171.1279990  43.9102780  50.3824690 171.0230630  43.2955130  51.1086070
 170.9604210  43.3868670  49.5987700 170.0357840  41.9313730  52.8831980
 170.4574260  41.7653600  53.7263370 170.1608680  41.1213960  52.3887120
 172.5485480  40.9551340  50.1309080 173.0691140  40.2400360  49.7650230
 173.1953880  41.5937210  50.4309590 168.9316740  38.0046960  49.8290140
 168.7305800  37.1414320  50.1903480 168.7608790  37.9180320  48.8911740
 167.7299540  35.1047580  49.8168020 168.0325440  35.1115010  48.9087170
 168.4694130  34.7545440  50.3135680 170.9484470  34.0482200  50.8024220
 170.6006470  33.3706190  50.2226670 171.1497240  33.5871710  51.6167610
 173.1133510  49.0362950  52.4210820 174.0084300  49.3747920  52.4429580
 173.1451140  48.3142360  51.7935100 166.7529670  44.4090000  50.6497820
 167.1904540  44.9519670  51.3055400 167.2377400  43.5836950  50.6594160
 163.9675470  47.1979030  58.1018080 164.2978480  46.3300090  57.8696720
 164.3966470  47.4037550  58.9323040 168.5637390  45.5288040  55.7620050
 168.2632930  45.4053010  56.6623960 168.4574880  44.6696630  55.3535780
 164.2890110  40.5769850  57.1988590 163.6338950  40.3081490  56.5548290
 165.1268060  40.4674330  56.7490570 163.5028190  37.7868780  53.1413920
 162.5992270  38.0498980  52.9665580 163.9868810  38.0579950  52.3613880
 166.0455400  36.8434320  51.0508300 166.7547100  36.4217540  50.5655580
 165.3295340  36.9109550  50.4191650 165.6929560  32.8973650  50.0910950
 166.4157690  33.4382590  50.4092170 165.9654080  32.6237070  49.2152490
 169.8163480  48.0020740  59.7567310 170.3328500  47.3908100  59.2315570
 170.4660860  48.5049520  60.2478320 164.4948380  49.1050130  56.1814660
 164.3270420  48.4720810  56.8796550 163.6282890  49.3109530  55.8308850
 165.1176400  32.9366910  53.6846520 165.8755760  33.0495790  53.1110550
 164.6553570  33.7736110  53.6389950 171.6590210  35.0506180  56.6748830
 170.8464720  34.6763070  56.3344710 172.1631850  34.2951260  56.9770020
 166.1011080  47.7983360  53.6264800 165.5758700  48.1791390  52.9226760
 166.0255660  48.4234130  54.3474510 167.4901550  33.4630960  52.2248490
 168.0194310  32.6760760  52.0956440 168.1229870  34.1422150  52.4584020
 169.6839390  33.2006100  55.2793880 169.0542130  32.4993410  55.4464010
 169.1444530  33.9610230  55.0627040 168.7004050  49.7465740  52.5014050
 169.4322870  49.4625020  51.9537940 168.9597720  49.5079020  53.3913430
 167.8618840  45.8630470  52.5060380 167.2327720  46.3315570  53.0546210
 167.9766670  45.0179690  52.9406570 173.4486600  41.6915150  40.5370850
 172.6728700  41.2115590  40.8269420 174.0999530  41.0120800  40.3627010
 167.4652430  42.0034960  41.4146610 166.6337310  41.7483670  41.8143120
 168.0733410  42.0745730  42.1504530 167.4453690  46.0375050  41.6104630
 167.7481730  45.1472790  41.4314850 168.1897280  46.5945270  41.3826880
 165.8744380  36.9636850  35.1989000 164.9861080  37.3052820  35.0968880
 166.1585570  36.7637170  34.3069830 163.8377390  39.5642500  41.0828700
 164.4093500  38.7964700  41.0832340 163.8378930  39.8631260  40.1735310
 173.6957340  48.3833350  38.9373970 173.0768780  48.8390850  38.3668410
 174.5509120  48.5384810  38.5363670 172.8895590  44.3672340  40.5441010
 172.8203870  43.4262280  40.3830140 173.6515450  44.4573750  41.1163580
 165.0802260  34.9726860  42.8697630 164.9005100  34.0752610  43.1500390
 164.6782340  35.5198730  43.5444580 173.9200760  37.1742720  40.7709940
 174.2965580  36.3014600  40.6583610 173.8220270  37.5101420  39.8800380
 168.0505770  35.5468350  36.2327380 168.1572520  36.4472080  36.5396140
 167.1398130  35.4986320  35.9422030 165.6988930  37.4687360  41.4779970
 166.3799040  37.7325730  42.0967370 165.3836980  36.6288230  41.8117980
 169.8913500  38.5154720  40.5652560 170.3991720  39.0135690  41.2057580
 170.4226740  37.7389920  40.3891920 168.1749600  33.1553280  44.8315980
 168.1768040  33.6725670  44.0261880 167.3453910  32.6783460  44.8085910
 169.4252450  42.7948460  43.0089480 169.0921830  43.4217380  43.6510550
 169.6019130  43.3210340  42.2291150 167.8564930  34.8663240  42.8386430
 168.1981740  35.7105290  42.5440300 166.9180740  35.0146980  42.9551770
 168.6371550  44.7629260  44.8238660 169.2545550  45.4380340  44.5423110
 167.7764670  45.1717240  44.7326160 163.9303890  43.9529120  33.7045510
 163.5531870  44.4416220  32.9730410 164.1876960  44.6254400  34.3352040
 171.5392820  32.3545510  39.1631020 171.8467800  31.7992400  38.4466520
 170.6093520  32.4889970  38.9804010 173.9273580  40.4194340  35.8991140
 173.0002860  40.3531720  36.1279610 174.0798400  41.3574470  35.7846380
 173.9142660  36.6911340  32.8958300 172.9746330  36.8525300  32.9810760
 174.2325920  37.4097020  32.3494290 169.5330220  40.9459080  38.6810870
 169.1287220  40.2336330  38.1856770 169.6193340  40.6012320  39.5698910
 170.0011920  44.6326640  40.8450080 169.7040210  44.0272110  40.1657860
 170.9511740  44.6703950  40.7339440 168.2458840  37.7202290  42.4609910
 168.7973430  37.8297630  41.6863160 168.7602350  38.0939890  43.1765140
 169.0930350  44.3708330  47.4957880 168.1958880  44.5948300  47.7431280
 169.1183220  44.4943270  46.5469280 167.9201570  41.2421650  46.0715250
 167.7809340  42.1144450  46.4402650 167.0382930  40.8994460  45.9263190
 174.2430950  46.1597520  37.3780380 174.6826860  46.9021850  36.9635770
 174.1817840  46.4024090  38.3019340 169.7181920  47.1843350  48.2800400
 169.6897350  47.5886300  47.4128830 169.5546890  46.2553710  48.1172000
 166.2334850  39.8404060  36.1817520 166.1132450  40.5666150  35.5698790
 165.9235740  39.0706970  35.7045430 163.8720220  43.0119200  41.9886160
 163.9500640  43.1467970  41.0441880 164.4861900  42.3035090  42.1814280
 165.1167850  44.7119390  38.3992340 164.7095930  44.8533980  37.5445940
 166.0080860  44.4279550  38.1963550 169.3889510  48.9265170  36.5115010
 169.2131990  48.0100710  36.2982810 168.5345250  49.2852460  36.7512810
 163.9279740  44.0533370  44.5280620 164.0910780  43.5838730  43.7099990
 164.3932190  43.5456930  45.1929460 168.6998510  33.1839130  39.5641190
 168.2566660  33.9648670  39.2325710 169.2583500  33.5069020  40.2712130
 172.9868320  36.0507650  45.1676510 172.5247690  36.2590670  45.9796450
 172.5846430  35.2367000  44.8647180 171.8157330  32.8049830  34.4447020
 171.1911510  32.8009700  35.1700330 171.7287450  31.9380790  34.0482990
 170.7374410  33.7286460  41.4230790 171.0346740  34.6349290  41.3422810
 171.2859970  33.2405240  40.8090360 168.4912730  38.3072700  37.2922440
 168.2653650  38.0909870  38.1969060 167.7105260  38.7401160  36.9468410
 170.9311940  39.2058280  47.9582710 170.8355540  38.2653010  47.8083110
 171.7743920  39.4273350  47.5630780 174.3275360  36.9499610  37.9216370
 174.7204930  37.2671810  37.1085060 174.6892210  36.0711490  38.0360890
 166.0622480  35.6171950  46.1116490 165.6685870  36.4647160  46.3189270
 165.3740880  34.9798320  46.3025130 172.6367530  35.7006920  49.1813230
 171.9465850  35.5079120  49.8159320 173.3799830  35.9841560  49.7137530
 163.3639530  33.5400410  40.1446570 163.0752580  34.1103270  40.8571550
 164.1085290  33.0604860  40.5077800 163.5509760  37.4820530  31.3549290
 163.4684430  38.4251290  31.4964280 163.1992820  37.3395440  30.4761640
 171.3507890  36.2159560  40.4219640 171.3543950  35.7749510  39.5724180
 172.2459010  36.5376890  40.5291460 167.2010270  36.0986050  39.3813850
 166.8610320  36.5761280  40.1380900 166.4387590  35.6451170  39.0214950
 171.4128040  37.2171640  33.4126400 171.5340860  37.1758120  34.3612220
 171.0276550  38.0795790  33.2573130 170.4249540  39.5272780  32.8109700
 169.8566440  39.0791030  32.1845610 171.1338540  39.8865560  32.2774850
 165.5018720  43.4284800  46.6876430 165.1173510  42.7878470  47.2859390
 165.8130910  44.1320920  47.2571160 171.6515860  40.2761340  42.1685050
 172.0185990  39.8019910  42.9146390 171.4620920  41.1502910  42.5093390
 164.5156350  35.0205030  38.2978520 164.2303270  34.6560700  39.1357140
 164.4535210  34.2885490  37.6841660 169.4415230  39.3169980  44.4869260
 169.1372300  40.1961960  44.7119620 170.3961690  39.3769770  44.5226700
 167.9697020  43.5230970  35.0836110 167.1959280  42.9828590  34.9234830
 168.6991650  43.0037580  34.7453870 174.1894940  33.9134290  35.0191890
 173.3759550  33.4147460  34.9437200 173.9956890  34.7532540  34.6028240
 174.1103800  42.5905390  46.7631500 174.0441110  41.6701060  46.5089090
 173.4808940  42.6880830  47.4776140 168.0134420  43.1911350  38.7214920
 168.5313090  42.3879610  38.6671810 167.5618440  43.1290490  39.5631750
 172.9003920  44.4577630  33.9942220 173.2419620  45.2019860  33.4985540
 172.0716630  44.7708750  34.3567050 165.4978960  40.1572720  45.6340620
 165.1393900  40.8226570  46.2213960 165.2033520  39.3256270  46.0053240
 168.6992080  40.6156960  48.5180170 168.3992220  40.7614140  47.6207990
 169.4703320  40.0562250  48.4253560 174.0420530  45.4125960  46.5135300
 174.0565070  44.4806920  46.2954210 173.3345630  45.4985720  47.1525070
 171.8694610  44.5391160  36.7658140 172.5565740  45.0860370  37.1465730
 171.0827030  45.0831890  36.8007750 164.0087010  40.1563980  32.2575220
 164.8781860  40.4388780  32.5411140 163.5177330  40.9699850  32.1424030
 171.1721820  41.5437190  36.3783500 171.6284600  42.3542440  36.6043690
 170.8210030  41.2260330  37.2101990 173.4754430  47.0543530  43.6075800
 174.1196650  47.2602910  44.2849220 173.8383870  46.2931930  43.1546650
 167.0733600  31.8874840  36.8506020 166.9448230  31.8792740  37.7990940
 166.2495620  32.2257930  36.4997030 164.3758260  49.3691360  32.8236850
 164.7355900  49.9680700  32.1694120 164.2350600  49.9151250  33.5971880
 164.0727530  33.6465960  46.3112720 163.3586050  33.8462880  46.9165330
 164.4922570  32.8705530  46.6827520 164.3600120  47.6346220  47.2979250
 164.4691240  46.6940960  47.1574640 163.7080680  47.9000970  46.6492980
 172.3512710  45.9062110  48.6977370 172.0309580  45.1871350  49.2423060
 171.6771070  46.5817180  48.7713430 165.9933520  41.9737450  34.3857280
 165.3861470  42.7136350  34.3952580 166.4682870  42.0636810  33.5595480
 173.3786480  46.8150800  32.3035710 173.4798460  46.6114790  31.3737690
 172.4788220  46.5609080  32.5083490 170.9012370  37.3731160  36.2859610
 170.1928520  37.8417500  36.7273220 171.1856850  36.7153170  36.9204800
 172.5268300  38.7927860  44.2852140 173.0253550  39.2673680  44.9503990
 172.6691250  37.8691380  44.4922170 172.0204590  49.3337120  36.9983380
 172.2746090  49.2958510  36.0762750 171.0717070  49.2070450  36.9911630
 169.1047390  35.6816240  33.6610320 169.9537920  36.1186390  33.5950510
 168.7378660  35.9936500  34.4882380 168.0038810  41.9348600  32.1345850
 168.7702080  41.8229960  32.6971280 168.0813500  41.2386570  31.4822620
 166.6985570  39.3673670  32.8178740 166.7789160  38.4201180  32.9296140
 167.5905320  39.6980550  32.9239400 167.5000280  49.5169060  39.9213280
 168.2362760  48.9684520  40.1921850 167.8841200  50.3825070  39.7819270
 164.3845760  45.5842630  35.7954790 163.4585540  45.8263770  35.7860200
 164.8502190  46.4116890  35.6739540 166.5058560  48.7015130  49.1098860
 167.3071290  49.0227180  49.5234260 165.9910380  48.3410710  49.8318770
 170.6102590  48.6899370  31.7438850 171.4031200  48.9788200  31.2920640
 170.0906940  48.2591540  31.0651330 164.2256370  41.1888590  48.0534910
 164.7295390  40.6095870  48.6251140 163.4863790  41.4728820  48.5911280
 171.1279990  43.9102780  31.6081200 171.0230630  43.2955130  32.3342580
 170.9604210  43.3868670  30.8244210 171.2794310  42.5959580  47.5870430
 170.5139980  43.1644580  47.5025100 171.4610270  42.3035790  46.6938660
 166.2579450  39.3318180  48.9484980 166.2984790  39.0332050  49.8570210
 167.1124950  39.7325790  48.7892500 170.0357840  41.9313730  34.1088490
 170.4574260  41.7653600  34.9519880 170.1608680  41.1213960  33.6143630
 168.1985260  37.9110280  46.9159470 167.6681720  37.4201230  46.2882810
 168.8673330  38.3394480  46.3817400 172.5485480  40.9551340  31.3565590
 173.0691140  40.2400360  30.9906740 173.1953880  41.5937210  31.6566100
 168.6857560  34.8772650  46.9956760 168.5914430  34.2593400  46.2707630
 168.1054950  35.6038940  46.7686670 171.4519000  33.4345890  44.0284150
 171.0036300  33.4570150  43.1829700 170.8184200  33.0364910  44.6254450
 171.8578550  42.3300220  44.6496590 172.2766660  43.1732950  44.4772830
 170.9387180  42.4672260  44.4203370 168.9316740  38.0046960  31.0546650
 168.7305800  37.1414320  31.4159990 168.7608790  37.9180320  30.1168250
 169.7085970  48.6353230  45.7654320 169.1707060  49.3599290  45.4463020
 169.9619930  48.1583570  44.9751660 170.9611220  36.6037750  47.2910250
 171.5510910  36.2953600  47.9788070 170.1431460  36.1317500  47.4470150
 167.7299540  35.1047580  31.0424530 168.0325440  35.1115010  30.1343680
 168.4694130  34.7545440  31.5392190 172.5648180  49.8704440  46.0240970
 172.4906880  50.7739580  46.3313340 171.6627020  49.5516340  45.9963040
 170.9484470  34.0482200  32.0280730 170.6006470  33.3706190  31.4483180
 171.1497240  33.5871710  32.8424120 173.1133510  49.0362950  33.6467330
 174.0084300  49.3747920  33.6686090 173.1451140  48.3142360  33.0191610
 166.7529670  44.4090000  31.8754330 167.1904540  44.9519670  32.5311910
 167.2377400  43.5836950  31.8850670 163.9675470  47.1979030  39.3274590
 164.2978480  46.3300090  39.0953230 164.3966470  47.4037550  40.1579550
 168.5637390  45.5288040  36.9876560 168.2632930  45.4053010  37.8880470
 168.4574880  44.6696630  36.5792290 164.4565680  48.0649620  42.0656220
 164.0196670  48.2450420  42.8980370 165.0243360  48.8224240  41.9237940
 164.2890110  40.5769850  38.4245100 163.6338950  40.3081490  37.7804800
 165.1268060  40.4674330  37.9747080 165.3266040  40.9622420  42.9648440
 165.6939080  40.8749820  43.8444460 164.7576860  40.1988970  42.8655300
 164.8782040  37.8731510  46.8706860 163.9838090  37.8398270  47.2100570
 165.4179590  38.0718300  47.6358110 163.5028190  37.7868780  34.3670430
 162.5992270  38.0498980  34.1922090 163.9868810  38.0579950  33.5870390
 166.0455400  36.8434320  32.2764810 166.7547100  36.4217540  31.7912090
 165.3295340  36.9109550  31.6448160 165.6929560  32.8973650  31.3167460
 166.4157690  33.4382590  31.6348680 165.9654080  32.6237070  30.4409000
 165.3821750  32.1479840  41.2190080 166.0297940  31.5977220  40.7785240
 165.8023590  32.4022990  42.0405890 165.1353750  32.3035510  43.9615400
 164.7868570  32.7599330  44.7273580 164.8041450  31.4092640  44.0437830
 166.7418120  45.4755110  48.1268590 166.6987750  45.1048020  49.0083050
 166.8729130  46.4132680  48.2670410 170.4424150  47.0314700  43.7278310
 170.2015510  47.2989260  42.8408830 171.3826790  47.2020430  43.7829170
 172.6478570  33.4947390  47.4834820 172.5867460  34.0869220  48.2330230
 173.5878950  33.3873350  47.3385080 165.8074390  31.8311710  47.2366170
 166.3557380  31.6499760  46.4732280 165.8729700  31.0405820  47.7722480
 166.5806150  48.4217360  45.2466370 165.9866470  48.2902060  45.9856410
 166.5729990  47.5855500  44.7808470 166.2118380  45.7875740  44.1974410
 165.4852440  45.1681030  44.1300360 166.2727530  46.1816350  43.3272490
 169.8163480  48.0020740  40.9823820 170.3328500  47.3908100  40.4572080
 170.4660860  48.5049520  41.4734830 172.5558980  48.8929230  41.8092800
 172.8436790  48.6383530  40.9325810 173.0682200  48.3406590  42.3998370
 173.7735990  32.6319430  42.3889310 172.9907780  33.1064930  42.6686070
 173.4798920  31.7274260  42.2802490 164.4948380  49.1050130  37.4071170
 164.3270420  48.4720810  38.1053060 163.6282890  49.3109530  37.0565360
 165.1176400  32.9366910  34.9103030 165.8755760  33.0495790  34.3367060
 164.6553570  33.7736110  34.8646460 171.6590210  35.0506180  37.9005340
 170.8464720  34.6763070  37.5601220 172.1631850  34.2951260  38.2026530
 166.1011080  47.7983360  34.8521310 165.5758700  48.1791390  34.1483270
 166.0255660  48.4234130  35.5731020 167.4901550  33.4630960  33.4505000
 168.0194310  32.6760760  33.3212950 168.1229870  34.1422150  33.6840530
 169.6839390  33.2006100  36.5050390 169.0542130  32.4993410  36.6720520
 169.1444530  33.9610230  36.2883550 172.6231340  49.8145330  49.1761000
 173.5498650  49.5789600  49.2196960 172.6081770  50.6417330  48.6947030
 169.8094950  32.4790080  48.9402880 169.5279220  32.9823680  48.1763700
 170.1914650  31.6811830  48.5745010 168.7004050  49.7465740  33.7270560
 169.4322870  49.4625020  33.1794450 168.9597720  49.5079020  34.6169940
 167.8618840  45.8630470  33.7316890 167.2327720  46.3315570  34.2802720
 167.9766670  45.0179690  34.1663080 173.4486600  41.6915150  21.7627360
 172.6728700  41.2115590  22.0525930 174.0999530  41.0120800  21.5883520
 167.4652430  42.0034960  22.6403120 166.6337310  41.7483670  23.0399630
 168.0733410  42.0745730  23.3761040 167.4453690  46.0375050  22.8361140
 167.7481730  45.1472790  22.6571360 168.1897280  46.5945270  22.6083390
 165.8744380  36.9636850  16.4245510 164.9861080  37.3052820  16.3225390
 166.1585570  36.7637170  15.5326340 173.6957340  48.3833350  20.1630480
 173.0768780  48.8390850  19.5924920 174.5509120  48.5384810  19.7620180
 172.8895590  44.3672340  21.7697520 172.8203870  43.4262280  21.6086650
 173.6515450  44.4573750  22.3420090 165.0802260  34.9726860  24.0954140
 164.9005100  34.0752610  24.3756900 164.6782340  35.5198730  24.7701090
 173.9200760  37.1742720  21.9966450 174.2965580  36.3014600  21.8840120
 173.8220270  37.5101420  21.1056890 168.0505770  35.5468350  17.4583890
 168.1572520  36.4472080  17.7652650 167.1398130  35.4986320  17.1678540
 165.6988930  37.4687360  22.7036480 166.3799040  37.7325730  23.3223880
 165.3836980  36.6288230  23.0374490 169.8913500  38.5154720  21.7909070
 170.3991720  39.0135690  22.4314090 170.4226740  37.7389920  21.6148430
 168.1749600  33.1553280  26.0572490 168.1768040  33.6725670  25.2518390
 167.3453910  32.6783460  26.0342420 169.4252450  42.7948460  24.2345990
 169.0921830  43.4217380  24.8767060 169.6019130  43.3210340  23.4547660
 167.8564930  34.8663240  24.0642940 168.1981740  35.7105290  23.7696810
 166.9180740  35.0146980  24.1808280 168.6371550  44.7629260  26.0495170
 169.2545550  45.4380340  25.7679620 167.7764670  45.1717240  25.9582670
 163.9303890  43.9529120  14.9302020 163.5531870  44.4416220  14.1986920
 164.1876960  44.6254400  15.5608550 171.5392820  32.3545510  20.3887530
 171.8467800  31.7992400  19.6723030 170.6093520  32.4889970  20.2060520
 173.9273580  40.4194340  17.1247650 173.0002860  40.3531720  17.3536120
 174.0798400  41.3574470  17.0102890 173.9142660  36.6911340  14.1214810
 172.9746330  36.8525300  14.2067270 174.2325920  37.4097020  13.5750800
 169.5330220  40.9459080  19.9067380 169.1287220  40.2336330  19.4113280
 169.6193340  40.6012320  20.7955420 170.0011920  44.6326640  22.0706590
 169.7040210  44.0272110  21.3914370 170.9511740  44.6703950  21.9595950
 168.2458840  37.7202290  23.6866420 168.7973430  37.8297630  22.9119670
 168.7602350  38.0939890  24.4021650 169.0930350  44.3708330  28.7214390
 168.1958880  44.5948300  28.9687790 169.1183220  44.4943270  27.7725790
 167.9201570  41.2421650  27.2971760 167.7809340  42.1144450  27.6659160
 167.0382930  40.8994460  27.1519700 174.2430950  46.1597520  18.6036890
 174.6826860  46.9021850  18.1892280 174.1817840  46.4024090  19.5275850
 169.7181920  47.1843350  29.5056910 169.6897350  47.5886300  28.6385340
 169.5546890  46.2553710  29.3428510 166.2334850  39.8404060  17.4074030
 166.1132450  40.5666150  16.7955300 165.9235740  39.0706970  16.9301940
 165.1167850  44.7119390  19.6248850 164.7095930  44.8533980  18.7702450
 166.0080860  44.4279550  19.4220060 169.3889510  48.9265170  17.7371520
 169.2131990  48.0100710  17.5239320 168.5345250  49.2852460  17.9769320
 168.6998510  33.1839130  20.7897700 168.2566660  33.9648670  20.4582220
 169.2583500  33.5069020  21.4968640 172.9868320  36.0507650  26.3933020
 172.5247690  36.2590670  27.2052960 172.5846430  35.2367000  26.0903690
 171.8157330  32.8049830  15.6703530 171.1911510  32.8009700  16.3956840
 171.7287450  31.9380790  15.2739500 170.7374410  33.7286460  22.6487300
 171.0346740  34.6349290  22.5679320 171.2859970  33.2405240  22.0346870
 168.4912730  38.3072700  18.5178950 168.2653650  38.0909870  19.4225570
 167.7105260  38.7401160  18.1724920 170.9311940  39.2058280  29.1839220
 170.8355540  38.2653010  29.0339620 171.7743920  39.4273350  28.7887290
 174.3275360  36.9499610  19.1472880 174.7204930  37.2671810  18.3341570
 174.6892210  36.0711490  19.2617400 166.0622480  35.6171950  27.3373000
 165.6685870  36.4647160  27.5445780 165.3740880  34.9798320  27.5281640
 172.6367530  35.7006920  30.4069740 171.9465850  35.5079120  31.0415830
 173.3799830  35.9841560  30.9394040 163.3639530  33.5400410  21.3703080
 163.0752580  34.1103270  22.0828060 164.1085290  33.0604860  21.7334310
 163.5509760  37.4820530  12.5805800 163.4684430  38.4251290  12.7220790
 163.1992820  37.3395440  11.7018150 171.3507890  36.2159560  21.6476150
 171.3543950  35.7749510  20.7980690 172.2459010  36.5376890  21.7547970
 167.2010270  36.0986050  20.6070360 166.8610320  36.5761280  21.3637410
 166.4387590  35.6451170  20.2471460 171.4128040  37.2171640  14.6382910
 171.5340860  37.1758120  15.5868730 171.0276550  38.0795790  14.4829640
 170.4249540  39.5272780  14.0366210 169.8566440  39.0791030  13.4102120
 171.1338540  39.8865560  13.5031360 165.5018720  43.4284800  27.9132940
 165.1173510  42.7878470  28.5115900 165.8130910  44.1320920  28.4827670
 171.6515860  40.2761340  23.3941560 172.0185990  39.8019910  24.1402900
 171.4620920  41.1502910  23.7349900 164.5156350  35.0205030  19.5235030
 164.2303270  34.6560700  20.3613650 164.4535210  34.2885490  18.9098170
 169.4415230  39.3169980  25.7125770 169.1372300  40.1961960  25.9376130
 170.3961690  39.3769770  25.7483210 167.9697020  43.5230970  16.3092620
 167.1959280  42.9828590  16.1491340 168.6991650  43.0037580  15.9710380
 174.1894940  33.9134290  16.2448400 173.3759550  33.4147460  16.1693710
 173.9956890  34.7532540  15.8284750 174.1103800  42.5905390  27.9888010
 174.0441110  41.6701060  27.7345600 173.4808940  42.6880830  28.7032650
 168.0134420  43.1911350  19.9471430 168.5313090  42.3879610  19.8928320
 167.5618440  43.1290490  20.7888260 172.9003920  44.4577630  15.2198730
 173.2419620  45.2019860  14.7242050 172.0716630  44.7708750  15.5823560
 165.4978960  40.1572720  26.8597130 165.1393900  40.8226570  27.4470470
 165.2033520  39.3256270  27.2309750 168.6992080  40.6156960  29.7436680
 168.3992220  40.7614140  28.8464500 169.4703320  40.0562250  29.6510070
 174.0420530  45.4125960  27.7391810 174.0565070  44.4806920  27.5210720
 173.3345630  45.4985720  28.3781580 171.8694610  44.5391160  17.9914650
 172.5565740  45.0860370  18.3722240 171.0827030  45.0831890  18.0264260
 164.0087010  40.1563980  13.4831730 164.8781860  40.4388780  13.7667650
 163.5177330  40.9699850  13.3680540 171.1721820  41.5437190  17.6040010
 171.6284600  42.3542440  17.8300200 170.8210030  41.2260330  18.4358500
 173.4754430  47.0543530  24.8332310 174.1196650  47.2602910  25.5105730
 173.8383870  46.2931930  24.3803160 167.0733600  31.8874840  18.0762530
 166.9448230  31.8792740  19.0247450 166.2495620  32.2257930  17.7253540
 164.3758260  49.3691360  14.0493360 164.7355900  49.9680700  13.3950630
 164.2350600  49.9151250  14.8228390 164.0727530  33.6465960  27.5369230
 163.3586050  33.8462880  28.1421840 164.4922570  32.8705530  27.9084030
 164.3600120  47.6346220  28.5235760 164.4691240  46.6940960  28.3831150
 163.7080680  47.9000970  27.8749490 172.3512710  45.9062110  29.9233880
 172.0309580  45.1871350  30.4679570 171.6771070  46.5817180  29.9969940
 170.3926880  46.7522560  14.8667030 170.3836980  47.4852250  14.2511540
 169.4725240  46.5054140  14.9593990 165.9933520  41.9737450  15.6113790
 165.3861470  42.7136350  15.6209090 166.4682870  42.0636810  14.7851990
 173.3786480  46.8150800  13.5292220 173.4798460  46.6114790  12.5994200
 172.4788220  46.5609080  13.7340000 170.9012370  37.3731160  17.5116120
 170.1928520  37.8417500  17.9529730 171.1856850  36.7153170  18.1461310
 172.5268300  38.7927860  25.5108650 173.0253550  39.2673680  26.1760500
 172.6691250  37.8691380  25.7178680 172.0204590  49.3337120  18.2239890
 172.2746090  49.2958510  17.3019260 171.0717070  49.2070450  18.2168140
 169.1047390  35.6816240  14.8866830 169.9537920  36.1186390  14.8207020
 168.7378660  35.9936500  15.7138890 168.0038810  41.9348600  13.3602360
 168.7702080  41.8229960  13.9227790 168.0813500  41.2386570  12.7079130
 166.6985570  39.3673670  14.0435250 166.7789160  38.4201180  14.1552650
 167.5905320  39.6980550  14.1495910 167.5000280  49.5169060  21.1469790
 168.2362760  48.9684520  21.4178360 167.8841200  50.3825070  21.0075780
 164.3845760  45.5842630  17.0211300 163.4585540  45.8263770  17.0116710
 164.8502190  46.4116890  16.8996050 166.5058560  48.7015130  30.3355370
 167.3071290  49.0227180  30.7490770 165.9910380  48.3410710  31.0575280
 170.6102590  48.6899370  12.9695360 171.4031200  48.9788200  12.5177150
 170.0906940  48.2591540  12.2907840 164.2256370  41.1888590  29.2791420
 164.7295390  40.6095870  29.8507650 163.4863790  41.4728820  29.8167790
 171.1279990  43.9102780  12.8337710 171.0230630  43.2955130  13.5599090
 170.9604210  43.3868670  12.0500720 171.2794310  42.5959580  28.8126940
 170.5139980  43.1644580  28.7281610 171.4610270  42.3035790  27.9195170
 166.2579450  39.3318180  30.1741490 166.2984790  39.0332050  31.0826720
 167.1124950  39.7325790  30.0149010 170.0357840  41.9313730  15.3345000
 170.4574260  41.7653600  16.1776390 170.1608680  41.1213960  14.8400140
 168.1985260  37.9110280  28.1415980 167.6681720  37.4201230  27.5139320
 168.8673330  38.3394480  27.6073910 172.5485480  40.9551340  12.5822100
 173.0691140  40.2400360  12.2163250 173.1953880  41.5937210  12.8822610
 168.6857560  34.8772650  28.2213270 168.5914430  34.2593400  27.4964140
 168.1054950  35.6038940  27.9943180 171.4519000  33.4345890  25.2540660
 171.0036300  33.4570150  24.4086210 170.8184200  33.0364910  25.8510960
 171.8578550  42.3300220  25.8753100 172.2766660  43.1732950  25.7029340
 170.9387180  42.4672260  25.6459880 168.9316740  38.0046960  12.2803160
 168.7305800  37.1414320  12.6416500 168.7608790  37.9180320  11.3424760
 169.7085970  48.6353230  26.9910830 169.1707060  49.3599290  26.6719530
 169.9619930  48.1583570  26.2008170 170.9611220  36.6037750  28.5166760
 171.5510910  36.2953600  29.2044580 170.1431460  36.1317500  28.6726660
 167.7299540  35.1047580  12.2681040 168.0325440  35.1115010  11.3600190
 168.4694130  34.7545440  12.7648700 172.5648180  49.8704440  27.2497480
 172.4906880  50.7739580  27.5569850 171.6627020  49.5516340  27.2219550
 170.9484470  34.0482200  13.2537240 170.6006470  33.3706190  12.6739690
 171.1497240  33.5871710  14.0680630 173.1133510  49.0362950  14.8723840
 174.0084300  49.3747920  14.8942600 173.1451140  48.3142360  14.2448120
 166.7529670  44.4090000  13.1010840 167.1904540  44.9519670  13.7568420
 167.2377400  43.5836950  13.1107180 163.9675470  47.1979030  20.5531100
 164.2978480  46.3300090  20.3209740 164.3966470  47.4037550  21.3836060
 168.5637390  45.5288040  18.2133070 168.2632930  45.4053010  19.1136980
 168.4574880  44.6696630  17.8048800 164.4565680  48.0649620  23.2912730
 164.0196670  48.2450420  24.1236880 165.0243360  48.8224240  23.1494450
 164.8782040  37.8731510  28.0963370 163.9838090  37.8398270  28.4357080
 165.4179590  38.0718300  28.8614620 163.5028190  37.7868780  15.5926940
 162.5992270  38.0498980  15.4178600 163.9868810  38.0579950  14.8126900
 166.0455400  36.8434320  13.5021320 166.7547100  36.4217540  13.0168600
 165.3295340  36.9109550  12.8704670 165.6929560  32.8973650  12.5423970
 166.4157690  33.4382590  12.8605190 165.9654080  32.6237070  11.6665510
 165.3821750  32.1479840  22.4446590 166.0297940  31.5977220  22.0041750
 165.8023590  32.4022990  23.2662400 165.1353750  32.3035510  25.1871910
 164.7868570  32.7599330  25.9530090 164.8041450  31.4092640  25.2694340
 166.7418120  45.4755110  29.3525100 166.6987750  45.1048020  30.2339560
 166.8729130  46.4132680  29.4926920 170.4424150  47.0314700  24.9534820
 170.2015510  47.2989260  24.0665340 171.3826790  47.2020430  25.0085680
 172.6478570  33.4947390  28.7091330 172.5867460  34.0869220  29.4586740
 173.5878950  33.3873350  28.5641590 165.8074390  31.8311710  28.4622680
 166.3557380  31.6499760  27.6988790 165.8729700  31.0405820  28.9978990
 166.5806150  48.4217360  26.4722880 165.9866470  48.2902060  27.2112920
 166.5729990  47.5855500  26.0064980 166.2118380  45.7875740  25.4230920
 165.4852440  45.1681030  25.3556870 166.2727530  46.1816350  24.5529000
 169.8163480  48.0020740  22.2080330 170.3328500  47.3908100  21.6828590
 170.4660860  48.5049520  22.6991340 172.5558980  48.8929230  23.0349310
 172.8436790  48.6383530  22.1582320 173.0682200  48.3406590  23.6254880
 173.7735990  32.6319430  23.6145820 172.9907780  33.1064930  23.8942580
 173.4798920  31.7274260  23.5059000 164.4948380  49.1050130  18.6327680
 164.3270420  48.4720810  19.3309570 163.6282890  49.3109530  18.2821870
 165.1176400  32.9366910  16.1359540 165.8755760  33.0495790  15.5623570
 164.6553570  33.7736110  16.0902970 171.6590210  35.0506180  19.1261850
 170.8464720  34.6763070  18.7857730 172.1631850  34.2951260  19.4283040
 166.1011080  47.7983360  16.0777820 165.5758700  48.1791390  15.3739780
 166.0255660  48.4234130  16.7987530 167.4901550  33.4630960  14.6761510
 168.0194310  32.6760760  14.5469460 168.1229870  34.1422150  14.9097040
 169.6839390  33.2006100  17.7306900 169.0542130  32.4993410  17.8977030
 169.1444530  33.9610230  17.5140060 172.6231340  49.8145330  30.4017510
 173.5498650  49.5789600  30.4453470 172.6081770  50.6417330  29.9203540
 169.8094950  32.4790080  30.1659390 169.5279220  32.9823680  29.4020210
 170.1914650  31.6811830  29.8001520 168.7004050  49.7465740  14.9527070
 169.4322870  49.4625020  14.4050960 168.9597720  49.5079020  15.8426450
 167.8618840  45.8630470  14.9573400 167.2327720  46.3315570  15.5059230
 167.9766670  45.0179690  15.3919590 173.4486600  41.6915150   2.9883870
 172.6728700  41.2115590   3.2782440 174.0999530  41.0120800   2.8140030
 167.4652430  42.0034960   3.8659630 166.6337310  41.7483670   4.2656140
 168.0733410  42.0745730   4.6017550 167.4453690  46.0375050   4.0617650
 167.7481730  45.1472790   3.8827870 168.1897280  46.5945270   3.8339900
 163.8377390  39.5642500   3.5341720 164.4093500  38.7964700   3.5345360
 163.8378930  39.8631260   2.6248330 172.8895590  44.3672340   2.9954030
 172.8203870  43.4262280   2.8343160 173.6515450  44.4573750   3.5676600
 165.0802260  34.9726860   5.3210650 164.9005100  34.0752610   5.6013410
 164.6782340  35.5198730   5.9957600 173.9200760  37.1742720   3.2222960
 174.2965580  36.3014600   3.1096630 173.8220270  37.5101420   2.3313400
 165.6988930  37.4687360   3.9292990 166.3799040  37.7325730   4.5480390
 165.3836980  36.6288230   4.2631000 169.8913500  38.5154720   3.0165580
 170.3991720  39.0135690   3.6570600 170.4226740  37.7389920   2.8404940
 168.1749600  33.1553280   7.2829000 168.1768040  33.6725670   6.4774900
 167.3453910  32.6783460   7.2598930 169.4252450  42.7948460   5.4602500
 169.0921830  43.4217380   6.1023570 169.6019130  43.3210340   4.6804170
 167.8564930  34.8663240   5.2899450 168.1981740  35.7105290   4.9953320
 166.9180740  35.0146980   5.4064790 168.6371550  44.7629260   7.2751680
 169.2545550  45.4380340   6.9936130 167.7764670  45.1717240   7.1839180
 170.0011920  44.6326640   3.2963100 169.7040210  44.0272110   2.6170880
 170.9511740  44.6703950   3.1852460 168.2458840  37.7202290   4.9122930
 168.7973430  37.8297630   4.1376180 168.7602350  38.0939890   5.6278160
 169.0930350  44.3708330   9.9470900 168.1958880  44.5948300  10.1944300
 169.1183220  44.4943270   8.9982300 167.9201570  41.2421650   8.5228270
 167.7809340  42.1144450   8.8915670 167.0382930  40.8994460   8.3776210
 169.7181920  47.1843350  10.7313420 169.6897350  47.5886300   9.8641850
 169.5546890  46.2553710  10.5685020 163.8720220  43.0119200   4.4399180
 163.9500640  43.1467970   3.4954900 164.4861900  42.3035090   4.6327300
 163.9279740  44.0533370   6.9793640 164.0910780  43.5838730   6.1613010
 164.3932190  43.5456930   7.6442480 168.6998510  33.1839130   2.0154210
 168.2566660  33.9648670   1.6838730 169.2583500  33.5069020   2.7225150
 172.9868320  36.0507650   7.6189530 172.5247690  36.2590670   8.4309470
 172.5846430  35.2367000   7.3160200 170.7374410  33.7286460   3.8743810
 171.0346740  34.6349290   3.7935830 171.2859970  33.2405240   3.2603380
 170.9311940  39.2058280  10.4095730 170.8355540  38.2653010  10.2596130
 171.7743920  39.4273350  10.0143800 166.0622480  35.6171950   8.5629510
 165.6685870  36.4647160   8.7702290 165.3740880  34.9798320   8.7538150
 172.6367530  35.7006920  11.6326250 171.9465850  35.5079120  12.2672340
 173.3799830  35.9841560  12.1650550 163.3639530  33.5400410   2.5959590
 163.0752580  34.1103270   3.3084570 164.1085290  33.0604860   2.9590820
 171.3507890  36.2159560   2.8732660 171.3543950  35.7749510   2.0237200
 172.2459010  36.5376890   2.9804480 167.2010270  36.0986050   1.8326870
 166.8610320  36.5761280   2.5893920 166.4387590  35.6451170   1.4727970
 165.5018720  43.4284800   9.1389450 165.1173510  42.7878470   9.7372410
 165.8130910  44.1320920   9.7084180 171.6515860  40.2761340   4.6198070
 172.0185990  39.8019910   5.3659410 171.4620920  41.1502910   4.9606410
 169.4415230  39.3169980   6.9382280 169.1372300  40.1961960   7.1632640
 170.3961690  39.3769770   6.9739720 174.1103800  42.5905390   9.2144520
 174.0441110  41.6701060   8.9602110 173.4808940  42.6880830   9.9289160
 165.4978960  40.1572720   8.0853640 165.1393900  40.8226570   8.6726980
 165.2033520  39.3256270   8.4566260 168.6992080  40.6156960  10.9693190
 168.3992220  40.7614140  10.0721010 169.4703320  40.0562250  10.8766580
 174.0420530  45.4125960   8.9648320 174.0565070  44.4806920   8.7467230
 173.3345630  45.4985720   9.6038090 173.4754430  47.0543530   6.0588820
 174.1196650  47.2602910   6.7362240 173.8383870  46.2931930   5.6059670
 164.0727530  33.6465960   8.7625740 163.3586050  33.8462880   9.3678350
 164.4922570  32.8705530   9.1340540 164.3600120  47.6346220   9.7492270
 164.4691240  46.6940960   9.6087660 163.7080680  47.9000970   9.1006000
 172.3512710  45.9062110  11.1490390 172.0309580  45.1871350  11.6936080
 171.6771070  46.5817180  11.2226450 172.5268300  38.7927860   6.7365160
 173.0253550  39.2673680   7.4017010 172.6691250  37.8691380   6.9435190
 167.5000280  49.5169060   2.3726300 168.2362760  48.9684520   2.6434870
 167.8841200  50.3825070   2.2332290 166.5058560  48.7015130  11.5611880
 167.3071290  49.0227180  11.9747280 165.9910380  48.3410710  12.2831790
 164.2256370  41.1888590  10.5047930 164.7295390  40.6095870  11.0764160
 163.4863790  41.4728820  11.0424300 171.2794310  42.5959580  10.0383450
 170.5139980  43.1644580   9.9538120 171.4610270  42.3035790   9.1451680
 166.2579450  39.3318180  11.3998000 166.2984790  39.0332050  12.3083230
 167.1124950  39.7325790  11.2405520 168.1985260  37.9110280   9.3672490
 167.6681720  37.4201230   8.7395830 168.8673330  38.3394480   8.8330420
 168.6857560  34.8772650   9.4469780 168.5914430  34.2593400   8.7220650
 168.1054950  35.6038940   9.2199690 171.4519000  33.4345890   6.4797170
 171.0036300  33.4570150   5.6342720 170.8184200  33.0364910   7.0767470
 171.8578550  42.3300220   7.1009610 172.2766660  43.1732950   6.9285850
 170.9387180  42.4672260   6.8716390 169.7085970  48.6353230   8.2167340
 169.1707060  49.3599290   7.8976040 169.9619930  48.1583570   7.4264680
 170.9611220  36.6037750   9.7423270 171.5510910  36.2953600  10.4301090
 170.1431460  36.1317500   9.8983170 172.5648180  49.8704440   8.4753990
 172.4906880  50.7739580   8.7826360 171.6627020  49.5516340   8.4476060
 163.9675470  47.1979030   1.7787610 164.2978480  46.3300090   1.5466250
 164.3966470  47.4037550   2.6092570 164.4565680  48.0649620   4.5169240
 164.0196670  48.2450420   5.3493390 165.0243360  48.8224240   4.3750960
 165.3266040  40.9622420   5.4161460 165.6939080  40.8749820   6.2957480
 164.7576860  40.1988970   5.3168320 164.8782040  37.8731510   9.3219880
 163.9838090  37.8398270   9.6613590 165.4179590  38.0718300  10.0871130
 165.3821750  32.1479840   3.6703100 166.0297940  31.5977220   3.2298260
 165.8023590  32.4022990   4.4918910 165.1353750  32.3035510   6.4128420
 164.7868570  32.7599330   7.1786600 164.8041450  31.4092640   6.4950850
 166.7418120  45.4755110  10.5781610 166.6987750  45.1048020  11.4596070
 166.8729130  46.4132680  10.7183430 170.4424150  47.0314700   6.1791330
 170.2015510  47.2989260   5.2921850 171.3826790  47.2020430   6.2342190
 172.6478570  33.4947390   9.9347840 172.5867460  34.0869220  10.6843250
 173.5878950  33.3873350   9.7898100 165.8074390  31.8311710   9.6879190
 166.3557380  31.6499760   8.9245300 165.8729700  31.0405820  10.2235500
 166.5806150  48.4217360   7.6979390 165.9866470  48.2902060   8.4369430
 166.5729990  47.5855500   7.2321490 166.2118380  45.7875740   6.6487430
 165.4852440  45.1681030   6.5813380 166.2727530  46.1816350   5.7785510
 169.8163480  48.0020740   3.4336840 170.3328500  47.3908100   2.9085100
 170.4660860  48.5049520   3.9247850 172.5558980  48.8929230   4.2605820
 172.8436790  48.6383530   3.3838830 173.0682200  48.3406590   4.8511390
 173.7735990  32.6319430   4.8402330 172.9907780  33.1064930   5.1199090
 173.4798920  31.7274260   4.7315510 172.6231340  49.8145330  11.6274020
 173.5498650  49.5789600  11.6709980 172.6081770  50.6417330  11.1460050
 169.8094950  32.4790080  11.3915900 169.5279220  32.9823680  10.6276720
 170.1914650  31.6811830  11.0258030 173.4486600  22.9171660  59.3114340
 172.6728700  22.4372100  59.6012910 174.0999530  22.2377310  59.1370500
 165.8744380  18.1893360  53.9732490 164.9861080  18.5309330  53.8712370
 166.1585570  17.9893680  53.0813320 163.8377390  20.7899010  59.8572190
 164.4093500  20.0221210  59.8575830 163.8378930  21.0887770  58.9478800
 173.6957340  29.6089860  57.7117460 173.0768780  30.0647360  57.1411900
 174.5509120  29.7641320  57.3107160 172.8895590  25.5928850  59.3184500
 172.8203870  24.6518790  59.1573630 173.6515450  25.6830260  59.8907070
 173.9200760  18.3999230  59.5453430 174.2965580  17.5271110  59.4327100
 173.8220270  18.7357930  58.6543870 168.0505770  16.7724860  55.0070870
 168.1572520  17.6728590  55.3139630 167.1398130  16.7242830  54.7165520
 169.8913500  19.7411230  59.3396050 170.3991720  20.2392200  59.9801070
 170.4226740  18.9646430  59.1635410 163.9303890  25.1785630  52.4789000
 163.5531870  25.6672730  51.7473900 164.1876960  25.8510910  53.1095530
 171.5392820  13.5802020  57.9374510 171.8467800  13.0248910  57.2210010
 170.6093520  13.7146480  57.7547500 173.9273580  21.6450850  54.6734630
 173.0002860  21.5788230  54.9023100 174.0798400  22.5830980  54.5589870
 173.9142660  17.9167850  51.6701790 172.9746330  18.0781810  51.7554250
 174.2325920  18.6353530  51.1237780 169.5330220  22.1715590  57.4554360
 169.1287220  21.4592840  56.9600260 169.6193340  21.8268830  58.3442400
 170.0011920  25.8583150  59.6193570 169.7040210  25.2528620  58.9401350
 170.9511740  25.8960460  59.5082930 174.2430950  27.3854030  56.1523870
 174.6826860  28.1278360  55.7379260 174.1817840  27.6280600  57.0762830
 166.2334850  21.0660570  54.9561010 166.1132450  21.7922660  54.3442280
 165.9235740  20.2963480  54.4788920 165.1167850  25.9375900  57.1735830
 164.7095930  26.0790490  56.3189430 166.0080860  25.6536060  56.9707040
 169.3889510  30.1521680  55.2858500 169.2131990  29.2357220  55.0726300
 168.5345250  30.5108970  55.5256300 168.6998510  14.4095640  58.3384680
 168.2566660  15.1905180  58.0069200 169.2583500  14.7325530  59.0455620
 171.8157330  14.0306340  53.2190510 171.1911510  14.0266210  53.9443820
 171.7287450  13.1637300  52.8226480 170.7374410  14.9542970  60.1974280
 171.0346740  15.8605800  60.1166300 171.2859970  14.4661750  59.5833850
 168.4912730  19.5329210  56.0665930 168.2653650  19.3166380  56.9712550
 167.7105260  19.9657670  55.7211900 174.3275360  18.1756120  56.6959860
 174.7204930  18.4928320  55.8828550 174.6892210  17.2968000  56.8104380
 163.3639530  14.7656920  58.9190060 163.0752580  15.3359780  59.6315040
 164.1085290  14.2861370  59.2821290 163.5509760  18.7077040  50.1292780
 163.4684430  19.6507800  50.2707770 163.1992820  18.5651950  49.2505130
 171.3507890  17.4416070  59.1963130 171.3543950  17.0006020  58.3467670
 172.2459010  17.7633400  59.3034950 167.2010270  17.3242560  58.1557340
 166.8610320  17.8017790  58.9124390 166.4387590  16.8707680  57.7958440
 171.4128040  18.4428150  52.1869890 171.5340860  18.4014630  53.1355710
 171.0276550  19.3052300  52.0316620 170.4249540  20.7529290  51.5853190
 169.8566440  20.3047540  50.9589100 171.1338540  21.1122070  51.0518340
 164.5156350  16.2461540  57.0722010 164.2303270  15.8817210  57.9100630
 164.4535210  15.5142000  56.4585150 167.9697020  24.7487480  53.8579600
 167.1959280  24.2085100  53.6978320 168.6991650  24.2294090  53.5197360
 174.1894940  15.1390800  53.7935380 173.3759550  14.6403970  53.7180690
 173.9956890  15.9789050  53.3771730 168.0134420  24.4167860  57.4958410
 168.5313090  23.6136120  57.4415300 167.5618440  24.3547000  58.3375240
 172.9003920  25.6834140  52.7685710 173.2419620  26.4276370  52.2729030
 172.0716630  25.9965260  53.1310540 171.8694610  25.7647670  55.5401630
 172.5565740  26.3116880  55.9209220 171.0827030  26.3088400  55.5751240
 164.0087010  21.3820490  51.0318710 164.8781860  21.6645290  51.3154630
 163.5177330  22.1956360  50.9167520 171.1721820  22.7693700  55.1526990
 171.6284600  23.5798950  55.3787180 170.8210030  22.4516840  55.9845480
 167.0733600  13.1131350  55.6249510 166.9448230  13.1049250  56.5734430
 166.2495620  13.4514440  55.2740520 164.3758260  30.5947870  51.5980340
 164.7355900  31.1937210  50.9437610 164.2350600  31.1407760  52.3715370
 170.3926880  27.9779070  52.4154010 170.3836980  28.7108760  51.7998520
 169.4725240  27.7310650  52.5080970 165.9933520  23.1993960  53.1600770
 165.3861470  23.9392860  53.1696070 166.4682870  23.2893320  52.3338970
 173.3786480  28.0407310  51.0779200 173.4798460  27.8371300  50.1481180
 172.4788220  27.7865590  51.2826980 170.9012370  18.5987670  55.0603100
 170.1928520  19.0674010  55.5016710 171.1856850  17.9409680  55.6948290
 172.0204590  30.5593630  55.7726870 172.2746090  30.5215020  54.8506240
 171.0717070  30.4326960  55.7655120 169.1047390  16.9072750  52.4353810
 169.9537920  17.3442900  52.3694000 168.7378660  17.2193010  53.2625870
 168.0038810  23.1605110  50.9089340 168.7702080  23.0486470  51.4714770
 168.0813500  22.4643080  50.2566110 166.6985570  20.5930180  51.5922230
 166.7789160  19.6457690  51.7039630 167.5905320  20.9237060  51.6982890
 167.5000280  30.7425570  58.6956770 168.2362760  30.1941030  58.9665340
 167.8841200  31.6081580  58.5562760 164.3845760  26.8099140  54.5698280
 163.4585540  27.0520280  54.5603690 164.8502190  27.6373400  54.4483030
 170.6102590  29.9155880  50.5182340 171.4031200  30.2044710  50.0664130
 170.0906940  29.4848050  49.8394820 171.1279990  25.1359290  50.3824690
 171.0230630  24.5211640  51.1086070 170.9604210  24.6125180  49.5987700
 170.0357840  23.1570240  52.8831980 170.4574260  22.9910110  53.7263370
 170.1608680  22.3470470  52.3887120 172.5485480  22.1807850  50.1309080
 173.0691140  21.4656870  49.7650230 173.1953880  22.8193720  50.4309590
 168.9316740  19.2303470  49.8290140 168.7305800  18.3670830  50.1903480
 168.7608790  19.1436830  48.8911740 167.7299540  16.3304090  49.8168020
 168.0325440  16.3371520  48.9087170 168.4694130  15.9801950  50.3135680
 170.9484470  15.2738710  50.8024220 170.6006470  14.5962700  50.2226670
 171.1497240  14.8128220  51.6167610 173.1133510  30.2619460  52.4210820
 174.0084300  30.6004430  52.4429580 173.1451140  29.5398870  51.7935100
 166.7529670  25.6346510  50.6497820 167.1904540  26.1776180  51.3055400
 167.2377400  24.8093460  50.6594160 163.9675470  28.4235540  58.1018080
 164.2978480  27.5556600  57.8696720 164.3966470  28.6294060  58.9323040
 168.5637390  26.7544550  55.7620050 168.2632930  26.6309520  56.6623960
 168.4574880  25.8953140  55.3535780 164.2890110  21.8026360  57.1988590
 163.6338950  21.5338000  56.5548290 165.1268060  21.6930840  56.7490570
 163.5028190  19.0125290  53.1413920 162.5992270  19.2755490  52.9665580
 163.9868810  19.2836460  52.3613880 166.0455400  18.0690830  51.0508300
 166.7547100  17.6474050  50.5655580 165.3295340  18.1366060  50.4191650
 165.6929560  14.1230160  50.0910950 166.4157690  14.6639100  50.4092170
 165.9654080  13.8493580  49.2152490 169.8163480  29.2277250  59.7567310
 170.3328500  28.6164610  59.2315570 170.4660860  29.7306030  60.2478320
 164.4948380  30.3306640  56.1814660 164.3270420  29.6977320  56.8796550
 163.6282890  30.5366040  55.8308850 165.1176400  14.1623420  53.6846520
 165.8755760  14.2752300  53.1110550 164.6553570  14.9992620  53.6389950
 171.6590210  16.2762690  56.6748830 170.8464720  15.9019580  56.3344710
 172.1631850  15.5207770  56.9770020 166.1011080  29.0239870  53.6264800
 165.5758700  29.4047900  52.9226760 166.0255660  29.6490640  54.3474510
 167.4901550  14.6887470  52.2248490 168.0194310  13.9017270  52.0956440
 168.1229870  15.3678660  52.4584020 169.6839390  14.4262610  55.2793880
 169.0542130  13.7249920  55.4464010 169.1444530  15.1866740  55.0627040
 168.7004050  30.9722250  52.5014050 169.4322870  30.6881530  51.9537940
 168.9597720  30.7335530  53.3913430 167.8618840  27.0886980  52.5060380
 167.2327720  27.5572080  53.0546210 167.9766670  26.2436200  52.9406570
 173.4486600  22.9171660  40.5370850 172.6728700  22.4372100  40.8269420
 174.0999530  22.2377310  40.3627010 167.4652430  23.2291470  41.4146610
 166.6337310  22.9740180  41.8143120 168.0733410  23.3002240  42.1504530
 167.4453690  27.2631560  41.6104630 167.7481730  26.3729300  41.4314850
 168.1897280  27.8201780  41.3826880 165.8744380  18.1893360  35.1989000
 164.9861080  18.5309330  35.0968880 166.1585570  17.9893680  34.3069830
 163.8377390  20.7899010  41.0828700 164.4093500  20.0221210  41.0832340
 163.8378930  21.0887770  40.1735310 173.6957340  29.6089860  38.9373970
 173.0768780  30.0647360  38.3668410 174.5509120  29.7641320  38.5363670
 172.8895590  25.5928850  40.5441010 172.8203870  24.6518790  40.3830140
 173.6515450  25.6830260  41.1163580 165.0802260  16.1983370  42.8697630
 164.9005100  15.3009120  43.1500390 164.6782340  16.7455240  43.5444580
 173.9200760  18.3999230  40.7709940 174.2965580  17.5271110  40.6583610
 173.8220270  18.7357930  39.8800380 168.0505770  16.7724860  36.2327380
 168.1572520  17.6728590  36.5396140 167.1398130  16.7242830  35.9422030
 165.6988930  18.6943870  41.4779970 166.3799040  18.9582240  42.0967370
 165.3836980  17.8544740  41.8117980 169.8913500  19.7411230  40.5652560
 170.3991720  20.2392200  41.2057580 170.4226740  18.9646430  40.3891920
 168.1749600  14.3809790  44.8315980 168.1768040  14.8982180  44.0261880
 167.3453910  13.9039970  44.8085910 169.4252450  24.0204970  43.0089480
 169.0921830  24.6473890  43.6510550 169.6019130  24.5466850  42.2291150
 167.8564930  16.0919750  42.8386430 168.1981740  16.9361800  42.5440300
 166.9180740  16.2403490  42.9551770 168.6371550  25.9885770  44.8238660
 169.2545550  26.6636850  44.5423110 167.7764670  26.3973750  44.7326160
 163.9303890  25.1785630  33.7045510 163.5531870  25.6672730  32.9730410
 164.1876960  25.8510910  34.3352040 171.5392820  13.5802020  39.1631020
 171.8467800  13.0248910  38.4466520 170.6093520  13.7146480  38.9804010
 173.9273580  21.6450850  35.8991140 173.0002860  21.5788230  36.1279610
 174.0798400  22.5830980  35.7846380 173.9142660  17.9167850  32.8958300
 172.9746330  18.0781810  32.9810760 174.2325920  18.6353530  32.3494290
 169.5330220  22.1715590  38.6810870 169.1287220  21.4592840  38.1856770
 169.6193340  21.8268830  39.5698910 170.0011920  25.8583150  40.8450080
 169.7040210  25.2528620  40.1657860 170.9511740  25.8960460  40.7339440
 168.2458840  18.9458800  42.4609910 168.7973430  19.0554140  41.6863160
 168.7602350  19.3196400  43.1765140 169.0930350  25.5964840  47.4957880
 168.1958880  25.8204810  47.7431280 169.1183220  25.7199780  46.5469280
 167.9201570  22.4678160  46.0715250 167.7809340  23.3400960  46.4402650
 167.0382930  22.1250970  45.9263190 174.2430950  27.3854030  37.3780380
 174.6826860  28.1278360  36.9635770 174.1817840  27.6280600  38.3019340
 169.7181920  28.4099860  48.2800400 169.6897350  28.8142810  47.4128830
 169.5546890  27.4810220  48.1172000 166.2334850  21.0660570  36.1817520
 166.1132450  21.7922660  35.5698790 165.9235740  20.2963480  35.7045430
 163.8720220  24.2375710  41.9886160 163.9500640  24.3724480  41.0441880
 164.4861900  23.5291600  42.1814280 165.1167850  25.9375900  38.3992340
 164.7095930  26.0790490  37.5445940 166.0080860  25.6536060  38.1963550
 169.3889510  30.1521680  36.5115010 169.2131990  29.2357220  36.2982810
 168.5345250  30.5108970  36.7512810 163.9279740  25.2789880  44.5280620
 164.0910780  24.8095240  43.7099990 164.3932190  24.7713440  45.1929460
 168.6998510  14.4095640  39.5641190 168.2566660  15.1905180  39.2325710
 169.2583500  14.7325530  40.2712130 172.9868320  17.2764160  45.1676510
 172.5247690  17.4847180  45.9796450 172.5846430  16.4623510  44.8647180
 171.8157330  14.0306340  34.4447020 171.1911510  14.0266210  35.1700330
 171.7287450  13.1637300  34.0482990 170.7374410  14.9542970  41.4230790
 171.0346740  15.8605800  41.3422810 171.2859970  14.4661750  40.8090360
 168.4912730  19.5329210  37.2922440 168.2653650  19.3166380  38.1969060
 167.7105260  19.9657670  36.9468410 170.9311940  20.4314790  47.9582710
 170.8355540  19.4909520  47.8083110 171.7743920  20.6529860  47.5630780
 174.3275360  18.1756120  37.9216370 174.7204930  18.4928320  37.1085060
 174.6892210  17.2968000  38.0360890 166.0622480  16.8428460  46.1116490
 165.6685870  17.6903670  46.3189270 165.3740880  16.2054830  46.3025130
 172.6367530  16.9263430  49.1813230 171.9465850  16.7335630  49.8159320
 173.3799830  17.2098070  49.7137530 163.3639530  14.7656920  40.1446570
 163.0752580  15.3359780  40.8571550 164.1085290  14.2861370  40.5077800
 163.5509760  18.7077040  31.3549290 163.4684430  19.6507800  31.4964280
 163.1992820  18.5651950  30.4761640 171.3507890  17.4416070  40.4219640
 171.3543950  17.0006020  39.5724180 172.2459010  17.7633400  40.5291460
 167.2010270  17.3242560  39.3813850 166.8610320  17.8017790  40.1380900
 166.4387590  16.8707680  39.0214950 171.4128040  18.4428150  33.4126400
 171.5340860  18.4014630  34.3612220 171.0276550  19.3052300  33.2573130
 170.4249540  20.7529290  32.8109700 169.8566440  20.3047540  32.1845610
 171.1338540  21.1122070  32.2774850 165.5018720  24.6541310  46.6876430
 165.1173510  24.0134980  47.2859390 165.8130910  25.3577430  47.2571160
 171.6515860  21.5017850  42.1685050 172.0185990  21.0276420  42.9146390
 171.4620920  22.3759420  42.5093390 164.5156350  16.2461540  38.2978520
 164.2303270  15.8817210  39.1357140 164.4535210  15.5142000  37.6841660
 169.4415230  20.5426490  44.4869260 169.1372300  21.4218470  44.7119620
 170.3961690  20.6026280  44.5226700 167.9697020  24.7487480  35.0836110
 167.1959280  24.2085100  34.9234830 168.6991650  24.2294090  34.7453870
 174.1894940  15.1390800  35.0191890 173.3759550  14.6403970  34.9437200
 173.9956890  15.9789050  34.6028240 174.1103800  23.8161900  46.7631500
 174.0441110  22.8957570  46.5089090 173.4808940  23.9137340  47.4776140
 168.0134420  24.4167860  38.7214920 168.5313090  23.6136120  38.6671810
 167.5618440  24.3547000  39.5631750 172.9003920  25.6834140  33.9942220
 173.2419620  26.4276370  33.4985540 172.0716630  25.9965260  34.3567050
 165.4978960  21.3829230  45.6340620 165.1393900  22.0483080  46.2213960
 165.2033520  20.5512780  46.0053240 168.6992080  21.8413470  48.5180170
 168.3992220  21.9870650  47.6207990 169.4703320  21.2818760  48.4253560
 174.0420530  26.6382470  46.5135300 174.0565070  25.7063430  46.2954210
 173.3345630  26.7242230  47.1525070 171.8694610  25.7647670  36.7658140
 172.5565740  26.3116880  37.1465730 171.0827030  26.3088400  36.8007750
 164.0087010  21.3820490  32.2575220 164.8781860  21.6645290  32.5411140
 163.5177330  22.1956360  32.1424030 171.1721820  22.7693700  36.3783500
 171.6284600  23.5798950  36.6043690 170.8210030  22.4516840  37.2101990
 173.4754430  28.2800040  43.6075800 174.1196650  28.4859420  44.2849220
 173.8383870  27.5188440  43.1546650 167.0733600  13.1131350  36.8506020
 166.9448230  13.1049250  37.7990940 166.2495620  13.4514440  36.4997030
 164.3758260  30.5947870  32.8236850 164.7355900  31.1937210  32.1694120
 164.2350600  31.1407760  33.5971880 164.0727530  14.8722470  46.3112720
 163.3586050  15.0719390  46.9165330 164.4922570  14.0962040  46.6827520
 164.3600120  28.8602730  47.2979250 164.4691240  27.9197470  47.1574640
 163.7080680  29.1257480  46.6492980 172.3512710  27.1318620  48.6977370
 172.0309580  26.4127860  49.2423060 171.6771070  27.8073690  48.7713430
 170.3926880  27.9779070  33.6410520 170.3836980  28.7108760  33.0255030
 169.4725240  27.7310650  33.7337480 165.9933520  23.1993960  34.3857280
 165.3861470  23.9392860  34.3952580 166.4682870  23.2893320  33.5595480
 173.3786480  28.0407310  32.3035710 173.4798460  27.8371300  31.3737690
 172.4788220  27.7865590  32.5083490 170.9012370  18.5987670  36.2859610
 170.1928520  19.0674010  36.7273220 171.1856850  17.9409680  36.9204800
 172.5268300  20.0184370  44.2852140 173.0253550  20.4930190  44.9503990
 172.6691250  19.0947890  44.4922170 172.0204590  30.5593630  36.9983380
 172.2746090  30.5215020  36.0762750 171.0717070  30.4326960  36.9911630
 169.1047390  16.9072750  33.6610320 169.9537920  17.3442900  33.5950510
 168.7378660  17.2193010  34.4882380 168.0038810  23.1605110  32.1345850
 168.7702080  23.0486470  32.6971280 168.0813500  22.4643080  31.4822620
 166.6985570  20.5930180  32.8178740 166.7789160  19.6457690  32.9296140
 167.5905320  20.9237060  32.9239400 167.5000280  30.7425570  39.9213280
 168.2362760  30.1941030  40.1921850 167.8841200  31.6081580  39.7819270
 164.3845760  26.8099140  35.7954790 163.4585540  27.0520280  35.7860200
 164.8502190  27.6373400  35.6739540 166.5058560  29.9271640  49.1098860
 167.3071290  30.2483690  49.5234260 165.9910380  29.5667220  49.8318770
 170.6102590  29.9155880  31.7438850 171.4031200  30.2044710  31.2920640
 170.0906940  29.4848050  31.0651330 164.2256370  22.4145100  48.0534910
 164.7295390  21.8352380  48.6251140 163.4863790  22.6985330  48.5911280
 171.1279990  25.1359290  31.6081200 171.0230630  24.5211640  32.3342580
 170.9604210  24.6125180  30.8244210 171.2794310  23.8216090  47.5870430
 170.5139980  24.3901090  47.5025100 171.4610270  23.5292300  46.6938660
 166.2579450  20.5574690  48.9484980 166.2984790  20.2588560  49.8570210
 167.1124950  20.9582300  48.7892500 170.0357840  23.1570240  34.1088490
 170.4574260  22.9910110  34.9519880 170.1608680  22.3470470  33.6143630
 168.1985260  19.1366790  46.9159470 167.6681720  18.6457740  46.2882810
 168.8673330  19.5650990  46.3817400 172.5485480  22.1807850  31.3565590
 173.0691140  21.4656870  30.9906740 173.1953880  22.8193720  31.6566100
 168.6857560  16.1029160  46.9956760 168.5914430  15.4849910  46.2707630
 168.1054950  16.8295450  46.7686670 171.4519000  14.6602400  44.0284150
 171.0036300  14.6826660  43.1829700 170.8184200  14.2621420  44.6254450
 171.8578550  23.5556730  44.6496590 172.2766660  24.3989460  44.4772830
 170.9387180  23.6928770  44.4203370 168.9316740  19.2303470  31.0546650
 168.7305800  18.3670830  31.4159990 168.7608790  19.1436830  30.1168250
 169.7085970  29.8609740  45.7654320 169.1707060  30.5855800  45.4463020
 169.9619930  29.3840080  44.9751660 170.9611220  17.8294260  47.2910250
 171.5510910  17.5210110  47.9788070 170.1431460  17.3574010  47.4470150
 167.7299540  16.3304090  31.0424530 168.0325440  16.3371520  30.1343680
 168.4694130  15.9801950  31.5392190 172.5648180  31.0960950  46.0240970
 172.4906880  31.9996090  46.3313340 171.6627020  30.7772850  45.9963040
 170.9484470  15.2738710  32.0280730 170.6006470  14.5962700  31.4483180
 171.1497240  14.8128220  32.8424120 173.1133510  30.2619460  33.6467330
 174.0084300  30.6004430  33.6686090 173.1451140  29.5398870  33.0191610
 166.7529670  25.6346510  31.8754330 167.1904540  26.1776180  32.5311910
 167.2377400  24.8093460  31.8850670 163.9675470  28.4235540  39.3274590
 164.2978480  27.5556600  39.0953230 164.3966470  28.6294060  40.1579550
 168.5637390  26.7544550  36.9876560 168.2632930  26.6309520  37.8880470
 168.4574880  25.8953140  36.5792290 164.4565680  29.2906130  42.0656220
 164.0196670  29.4706930  42.8980370 165.0243360  30.0480750  41.9237940
 164.2890110  21.8026360  38.4245100 163.6338950  21.5338000  37.7804800
 165.1268060  21.6930840  37.9747080 165.3266040  22.1878930  42.9648440
 165.6939080  22.1006330  43.8444460 164.7576860  21.4245480  42.8655300
 164.8782040  19.0988020  46.8706860 163.9838090  19.0654780  47.2100570
 165.4179590  19.2974810  47.6358110 163.5028190  19.0125290  34.3670430
 162.5992270  19.2755490  34.1922090 163.9868810  19.2836460  33.5870390
 166.0455400  18.0690830  32.2764810 166.7547100  17.6474050  31.7912090
 165.3295340  18.1366060  31.6448160 165.6929560  14.1230160  31.3167460
 166.4157690  14.6639100  31.6348680 165.9654080  13.8493580  30.4409000
 165.3821750  13.3736350  41.2190080 166.0297940  12.8233730  40.7785240
 165.8023590  13.6279500  42.0405890 165.1353750  13.5292020  43.9615400
 164.7868570  13.9855840  44.7273580 164.8041450  12.6349150  44.0437830
 166.7418120  26.7011620  48.1268590 166.6987750  26.3304530  49.0083050
 166.8729130  27.6389190  48.2670410 170.4424150  28.2571210  43.7278310
 170.2015510  28.5245770  42.8408830 171.3826790  28.4276940  43.7829170
 172.6478570  14.7203900  47.4834820 172.5867460  15.3125730  48.2330230
 173.5878950  14.6129860  47.3385080 165.8074390  13.0568220  47.2366170
 166.3557380  12.8756270  46.4732280 165.8729700  12.2662330  47.7722480
 166.5806150  29.6473870  45.2466370 165.9866470  29.5158570  45.9856410
 166.5729990  28.8112010  44.7808470 166.2118380  27.0132250  44.1974410
 165.4852440  26.3937540  44.1300360 166.2727530  27.4072860  43.3272490
 169.8163480  29.2277250  40.9823820 170.3328500  28.6164610  40.4572080
 170.4660860  29.7306030  41.4734830 172.5558980  30.1185740  41.8092800
 172.8436790  29.8640040  40.9325810 173.0682200  29.5663100  42.3998370
 173.7735990  13.8575940  42.3889310 172.9907780  14.3321440  42.6686070
 173.4798920  12.9530770  42.2802490 164.4948380  30.3306640  37.4071170
 164.3270420  29.6977320  38.1053060 163.6282890  30.5366040  37.0565360
 165.1176400  14.1623420  34.9103030 165.8755760  14.2752300  34.3367060
 164.6553570  14.9992620  34.8646460 171.6590210  16.2762690  37.9005340
 170.8464720  15.9019580  37.5601220 172.1631850  15.5207770  38.2026530
 166.1011080  29.0239870  34.8521310 165.5758700  29.4047900  34.1483270
 166.0255660  29.6490640  35.5731020 167.4901550  14.6887470  33.4505000
 168.0194310  13.9017270  33.3212950 168.1229870  15.3678660  33.6840530
 169.6839390  14.4262610  36.5050390 169.0542130  13.7249920  36.6720520
 169.1444530  15.1866740  36.2883550 172.6231340  31.0401840  49.1761000
 173.5498650  30.8046110  49.2196960 172.6081770  31.8673840  48.6947030
 169.8094950  13.7046590  48.9402880 169.5279220  14.2080190  48.1763700
 170.1914650  12.9068340  48.5745010 168.7004050  30.9722250  33.7270560
 169.4322870  30.6881530  33.1794450 168.9597720  30.7335530  34.6169940
 167.8618840  27.0886980  33.7316890 167.2327720  27.5572080  34.2802720
 167.9766670  26.2436200  34.1663080 173.4486600  22.9171660  21.7627360
 172.6728700  22.4372100  22.0525930 174.0999530  22.2377310  21.5883520
 167.4652430  23.2291470  22.6403120 166.6337310  22.9740180  23.0399630
 168.0733410  23.3002240  23.3761040 167.4453690  27.2631560  22.8361140
 167.7481730  26.3729300  22.6571360 168.1897280  27.8201780  22.6083390
 165.8744380  18.1893360  16.4245510 164.9861080  18.5309330  16.3225390
 166.1585570  17.9893680  15.5326340 163.8377390  20.7899010  22.3085210
 164.4093500  20.0221210  22.3088850 163.8378930  21.0887770  21.3991820
 173.6957340  29.6089860  20.1630480 173.0768780  30.0647360  19.5924920
 174.5509120  29.7641320  19.7620180 172.8895590  25.5928850  21.7697520
 172.8203870  24.6518790  21.6086650 173.6515450  25.6830260  22.3420090
 165.0802260  16.1983370  24.0954140 164.9005100  15.3009120  24.3756900
 164.6782340  16.7455240  24.7701090 173.9200760  18.3999230  21.9966450
 174.2965580  17.5271110  21.8840120 173.8220270  18.7357930  21.1056890
 168.0505770  16.7724860  17.4583890 168.1572520  17.6728590  17.7652650
 167.1398130  16.7242830  17.1678540 165.6988930  18.6943870  22.7036480
 166.3799040  18.9582240  23.3223880 165.3836980  17.8544740  23.0374490
 169.8913500  19.7411230  21.7909070 170.3991720  20.2392200  22.4314090
 170.4226740  18.9646430  21.6148430 168.1749600  14.3809790  26.0572490
 168.1768040  14.8982180  25.2518390 167.3453910  13.9039970  26.0342420
 169.4252450  24.0204970  24.2345990 169.0921830  24.6473890  24.8767060
 169.6019130  24.5466850  23.4547660 167.8564930  16.0919750  24.0642940
 168.1981740  16.9361800  23.7696810 166.9180740  16.2403490  24.1808280
 168.6371550  25.9885770  26.0495170 169.2545550  26.6636850  25.7679620
 167.7764670  26.3973750  25.9582670 163.9303890  25.1785630  14.9302020
 163.5531870  25.6672730  14.1986920 164.1876960  25.8510910  15.5608550
 171.5392820  13.5802020  20.3887530 171.8467800  13.0248910  19.6723030
 170.6093520  13.7146480  20.2060520 173.9273580  21.6450850  17.1247650
 173.0002860  21.5788230  17.3536120 174.0798400  22.5830980  17.0102890
 173.9142660  17.9167850  14.1214810 172.9746330  18.0781810  14.2067270
 174.2325920  18.6353530  13.5750800 169.5330220  22.1715590  19.9067380
 169.1287220  21.4592840  19.4113280 169.6193340  21.8268830  20.7955420
 170.0011920  25.8583150  22.0706590 169.7040210  25.2528620  21.3914370
 170.9511740  25.8960460  21.9595950 168.2458840  18.9458800  23.6866420
 168.7973430  19.0554140  22.9119670 168.7602350  19.3196400  24.4021650
 169.0930350  25.5964840  28.7214390 168.1958880  25.8204810  28.9687790
 169.1183220  25.7199780  27.7725790 167.9201570  22.4678160  27.2971760
 167.7809340  23.3400960  27.6659160 167.0382930  22.1250970  27.1519700
 174.2430950  27.3854030  18.6036890 174.6826860  28.1278360  18.1892280
 174.1817840  27.6280600  19.5275850 169.7181920  28.4099860  29.5056910
 169.6897350  28.8142810  28.6385340 169.5546890  27.4810220  29.3428510
 166.2334850  21.0660570  17.4074030 166.1132450  21.7922660  16.7955300
 165.9235740  20.2963480  16.9301940 163.8720220  24.2375710  23.2142670
 163.9500640  24.3724480  22.2698390 164.4861900  23.5291600  23.4070790
 165.1167850  25.9375900  19.6248850 164.7095930  26.0790490  18.7702450
 166.0080860  25.6536060  19.4220060 169.3889510  30.1521680  17.7371520
 169.2131990  29.2357220  17.5239320 168.5345250  30.5108970  17.9769320
 163.9279740  25.2789880  25.7537130 164.0910780  24.8095240  24.9356500
 164.3932190  24.7713440  26.4185970 168.6998510  14.4095640  20.7897700
 168.2566660  15.1905180  20.4582220 169.2583500  14.7325530  21.4968640
 172.9868320  17.2764160  26.3933020 172.5247690  17.4847180  27.2052960
 172.5846430  16.4623510  26.0903690 171.8157330  14.0306340  15.6703530
 171.1911510  14.0266210  16.3956840 171.7287450  13.1637300  15.2739500
 170.7374410  14.9542970  22.6487300 171.0346740  15.8605800  22.5679320
 171.2859970  14.4661750  22.0346870 168.4912730  19.5329210  18.5178950
 168.2653650  19.3166380  19.4225570 167.7105260  19.9657670  18.1724920
 170.9311940  20.4314790  29.1839220 170.8355540  19.4909520  29.0339620
 171.7743920  20.6529860  28.7887290 174.3275360  18.1756120  19.1472880
 174.7204930  18.4928320  18.3341570 174.6892210  17.2968000  19.2617400
 166.0622480  16.8428460  27.3373000 165.6685870  17.6903670  27.5445780
 165.3740880  16.2054830  27.5281640 172.6367530  16.9263430  30.4069740
 171.9465850  16.7335630  31.0415830 173.3799830  17.2098070  30.9394040
 163.3639530  14.7656920  21.3703080 163.0752580  15.3359780  22.0828060
 164.1085290  14.2861370  21.7334310 163.5509760  18.7077040  12.5805800
 163.4684430  19.6507800  12.7220790 163.1992820  18.5651950  11.7018150
 171.3507890  17.4416070  21.6476150 171.3543950  17.0006020  20.7980690
 172.2459010  17.7633400  21.7547970 167.2010270  17.3242560  20.6070360
 166.8610320  17.8017790  21.3637410 166.4387590  16.8707680  20.2471460
 171.4128040  18.4428150  14.6382910 171.5340860  18.4014630  15.5868730
 171.0276550  19.3052300  14.4829640 170.4249540  20.7529290  14.0366210
 169.8566440  20.3047540  13.4102120 171.1338540  21.1122070  13.5031360
 165.5018720  24.6541310  27.9132940 165.1173510  24.0134980  28.5115900
 165.8130910  25.3577430  28.4827670 171.6515860  21.5017850  23.3941560
 172.0185990  21.0276420  24.1402900 171.4620920  22.3759420  23.7349900
 164.5156350  16.2461540  19.5235030 164.2303270  15.8817210  20.3613650
 164.4535210  15.5142000  18.9098170 169.4415230  20.5426490  25.7125770
 169.1372300  21.4218470  25.9376130 170.3961690  20.6026280  25.7483210
 167.9697020  24.7487480  16.3092620 167.1959280  24.2085100  16.1491340
 168.6991650  24.2294090  15.9710380 174.1894940  15.1390800  16.2448400
 173.3759550  14.6403970  16.1693710 173.9956890  15.9789050  15.8284750
 174.1103800  23.8161900  27.9888010 174.0441110  22.8957570  27.7345600
 173.4808940  23.9137340  28.7032650 168.0134420  24.4167860  19.9471430
 168.5313090  23.6136120  19.8928320 167.5618440  24.3547000  20.7888260
 172.9003920  25.6834140  15.2198730 173.2419620  26.4276370  14.7242050
 172.0716630  25.9965260  15.5823560 165.4978960  21.3829230  26.8597130
 165.1393900  22.0483080  27.4470470 165.2033520  20.5512780  27.2309750
 168.6992080  21.8413470  29.7436680 168.3992220  21.9870650  28.8464500
 169.4703320  21.2818760  29.6510070 174.0420530  26.6382470  27.7391810
 174.0565070  25.7063430  27.5210720 173.3345630  26.7242230  28.3781580
 171.8694610  25.7647670  17.9914650 172.5565740  26.3116880  18.3722240
 171.0827030  26.3088400  18.0264260 164.0087010  21.3820490  13.4831730
 164.8781860  21.6645290  13.7667650 163.5177330  22.1956360  13.3680540
 171.1721820  22.7693700  17.6040010 171.6284600  23.5798950  17.8300200
 170.8210030  22.4516840  18.4358500 173.4754430  28.2800040  24.8332310
 174.1196650  28.4859420  25.5105730 173.8383870  27.5188440  24.3803160
 167.0733600  13.1131350  18.0762530 166.9448230  13.1049250  19.0247450
 166.2495620  13.4514440  17.7253540 164.3758260  30.5947870  14.0493360
 164.7355900  31.1937210  13.3950630 164.2350600  31.1407760  14.8228390
 164.0727530  14.8722470  27.5369230 163.3586050  15.0719390  28.1421840
 164.4922570  14.0962040  27.9084030 164.3600120  28.8602730  28.5235760
 164.4691240  27.9197470  28.3831150 163.7080680  29.1257480  27.8749490
 172.3512710  27.1318620  29.9233880 172.0309580  26.4127860  30.4679570
 171.6771070  27.8073690  29.9969940 170.3926880  27.9779070  14.8667030
 170.3836980  28.7108760  14.2511540 169.4725240  27.7310650  14.9593990
 165.9933520  23.1993960  15.6113790 165.3861470  23.9392860  15.6209090
 166.4682870  23.2893320  14.7851990 173.3786480  28.0407310  13.5292220
 173.4798460  27.8371300  12.5994200 172.4788220  27.7865590  13.7340000
 170.9012370  18.5987670  17.5116120 170.1928520  19.0674010  17.9529730
 171.1856850  17.9409680  18.1461310 172.5268300  20.0184370  25.5108650
 173.0253550  20.4930190  26.1760500 172.6691250  19.0947890  25.7178680
 172.0204590  30.5593630  18.2239890 172.2746090  30.5215020  17.3019260
 171.0717070  30.4326960  18.2168140 169.1047390  16.9072750  14.8866830
 169.9537920  17.3442900  14.8207020 168.7378660  17.2193010  15.7138890
 168.0038810  23.1605110  13.3602360 168.7702080  23.0486470  13.9227790
 168.0813500  22.4643080  12.7079130 166.6985570  20.5930180  14.0435250
 166.7789160  19.6457690  14.1552650 167.5905320  20.9237060  14.1495910
 167.5000280  30.7425570  21.1469790 168.2362760  30.1941030  21.4178360
 167.8841200  31.6081580  21.0075780 164.3845760  26.8099140  17.0211300
 163.4585540  27.0520280  17.0116710 164.8502190  27.6373400  16.8996050
 166.5058560  29.9271640  30.3355370 167.3071290  30.2483690  30.7490770
 165.9910380  29.5667220  31.0575280 170.6102590  29.9155880  12.9695360
 171.4031200  30.2044710  12.5177150 170.0906940  29.4848050  12.2907840
 164.2256370  22.4145100  29.2791420 164.7295390  21.8352380  29.8507650
 163.4863790  22.6985330  29.8167790 171.1279990  25.1359290  12.8337710
 171.0230630  24.5211640  13.5599090 170.9604210  24.6125180  12.0500720
 171.2794310  23.8216090  28.8126940 170.5139980  24.3901090  28.7281610
 171.4610270  23.5292300  27.9195170 166.2579450  20.5574690  30.1741490
 166.2984790  20.2588560  31.0826720 167.1124950  20.9582300  30.0149010
 170.0357840  23.1570240  15.3345000 170.4574260  22.9910110  16.1776390
 170.1608680  22.3470470  14.8400140 168.1985260  19.1366790  28.1415980
 167.6681720  18.6457740  27.5139320 168.8673330  19.5650990  27.6073910
 172.5485480  22.1807850  12.5822100 173.0691140  21.4656870  12.2163250
 173.1953880  22.8193720  12.8822610 168.6857560  16.1029160  28.2213270
 168.5914430  15.4849910  27.4964140 168.1054950  16.8295450  27.9943180
 171.4519000  14.6602400  25.2540660 171.0036300  14.6826660  24.4086210
 170.8184200  14.2621420  25.8510960 171.8578550  23.5556730  25.8753100
 172.2766660  24.3989460  25.7029340 170.9387180  23.6928770  25.6459880
 168.9316740  19.2303470  12.2803160 168.7305800  18.3670830  12.6416500
 168.7608790  19.1436830  11.3424760 169.7085970  29.8609740  26.9910830
 169.1707060  30.5855800  26.6719530 169.9619930  29.3840080  26.2008170
 170.9611220  17.8294260  28.5166760 171.5510910  17.5210110  29.2044580
 170.1431460  17.3574010  28.6726660 167.7299540  16.3304090  12.2681040
 168.0325440  16.3371520  11.3600190 168.4694130  15.9801950  12.7648700
 172.5648180  31.0960950  27.2497480 172.4906880  31.9996090  27.5569850
 171.6627020  30.7772850  27.2219550 170.9484470  15.2738710  13.2537240
 170.6006470  14.5962700  12.6739690 171.1497240  14.8128220  14.0680630
 173.1133510  30.2619460  14.8723840 174.0084300  30.6004430  14.8942600
 173.1451140  29.5398870  14.2448120 166.7529670  25.6346510  13.1010840
 167.1904540  26.1776180  13.7568420 167.2377400  24.8093460  13.1107180
 163.9675470  28.4235540  20.5531100 164.2978480  27.5556600  20.3209740
 164.3966470  28.6294060  21.3836060 168.5637390  26.7544550  18.2133070
 168.2632930  26.6309520  19.1136980 168.4574880  25.8953140  17.8048800
 164.4565680  29.2906130  23.2912730 164.0196670  29.4706930  24.1236880
 165.0243360  30.0480750  23.1494450 164.2890110  21.8026360  19.6501610
 163.6338950  21.5338000  19.0061310 165.1268060  21.6930840  19.2003590
 165.3266040  22.1878930  24.1904950 165.6939080  22.1006330  25.0700970
 164.7576860  21.4245480  24.0911810 164.8782040  19.0988020  28.0963370
 163.9838090  19.0654780  28.4357080 165.4179590  19.2974810  28.8614620
 163.5028190  19.0125290  15.5926940 162.5992270  19.2755490  15.4178600
 163.9868810  19.2836460  14.8126900 166.0455400  18.0690830  13.5021320
 166.7547100  17.6474050  13.0168600 165.3295340  18.1366060  12.8704670
 165.6929560  14.1230160  12.5423970 166.4157690  14.6639100  12.8605190
 165.9654080  13.8493580  11.6665510 165.3821750  13.3736350  22.4446590
 166.0297940  12.8233730  22.0041750 165.8023590  13.6279500  23.2662400
 165.1353750  13.5292020  25.1871910 164.7868570  13.9855840  25.9530090
 164.8041450  12.6349150  25.2694340 166.7418120  26.7011620  29.3525100
 166.6987750  26.3304530  30.2339560 166.8729130  27.6389190  29.4926920
 170.4424150  28.2571210  24.9534820 170.2015510  28.5245770  24.0665340
 171.3826790  28.4276940  25.0085680 172.6478570  14.7203900  28.7091330
 172.5867460  15.3125730  29.4586740 173.5878950  14.6129860  28.5641590
 165.8074390  13.0568220  28.4622680 166.3557380  12.8756270  27.6988790
 165.8729700  12.2662330  28.9978990 166.5806150  29.6473870  26.4722880
 165.9866470  29.5158570  27.2112920 166.5729990  28.8112010  26.0064980
 166.2118380  27.0132250  25.4230920 165.4852440  26.3937540  25.3556870
 166.2727530  27.4072860  24.5529000 169.8163480  29.2277250  22.2080330
 170.3328500  28.6164610  21.6828590 170.4660860  29.7306030  22.6991340
 172.5558980  30.1185740  23.0349310 172.8436790  29.8640040  22.1582320
 173.0682200  29.5663100  23.6254880 173.7735990  13.8575940  23.6145820
 172.9907780  14.3321440  23.8942580 173.4798920  12.9530770  23.5059000
 164.4948380  30.3306640  18.6327680 164.3270420  29.6977320  19.3309570
 163.6282890  30.5366040  18.2821870 165.1176400  14.1623420  16.1359540
 165.8755760  14.2752300  15.5623570 164.6553570  14.9992620  16.0902970
 171.6590210  16.2762690  19.1261850 170.8464720  15.9019580  18.7857730
 172.1631850  15.5207770  19.4283040 166.1011080  29.0239870  16.0777820
 165.5758700  29.4047900  15.3739780 166.0255660  29.6490640  16.7987530
 167.4901550  14.6887470  14.6761510 168.0194310  13.9017270  14.5469460
 168.1229870  15.3678660  14.9097040 169.6839390  14.4262610  17.7306900
 169.0542130  13.7249920  17.8977030 169.1444530  15.1866740  17.5140060
 172.6231340  31.0401840  30.4017510 173.5498650  30.8046110  30.4453470
 172.6081770  31.8673840  29.9203540 169.8094950  13.7046590  30.1659390
 169.5279220  14.2080190  29.4020210 170.1914650  12.9068340  29.8001520
 168.7004050  30.9722250  14.9527070 169.4322870  30.6881530  14.4050960
 168.9597720  30.7335530  15.8426450 167.8618840  27.0886980  14.9573400
 167.2327720  27.5572080  15.5059230 167.9766670  26.2436200  15.3919590
 173.4486600  22.9171660   2.9883870 172.6728700  22.4372100   3.2782440
 174.0999530  22.2377310   2.8140030 167.4652430  23.2291470   3.8659630
 166.6337310  22.9740180   4.2656140 168.0733410  23.3002240   4.6017550
 167.4453690  27.2631560   4.0617650 167.7481730  26.3729300   3.8827870
 168.1897280  27.8201780   3.8339900 163.8377390  20.7899010   3.5341720
 164.4093500  20.0221210   3.5345360 163.8378930  21.0887770   2.6248330
 172.8895590  25.5928850   2.9954030 172.8203870  24.6518790   2.8343160
 173.6515450  25.6830260   3.5676600 165.0802260  16.1983370   5.3210650
 164.9005100  15.3009120   5.6013410 164.6782340  16.7455240   5.9957600
 173.9200760  18.3999230   3.2222960 174.2965580  17.5271110   3.1096630
 173.8220270  18.7357930   2.3313400 165.6988930  18.6943870   3.9292990
 166.3799040  18.9582240   4.5480390 165.3836980  17.8544740   4.2631000
 169.8913500  19.7411230   3.0165580 170.3991720  20.2392200   3.6570600
 170.4226740  18.9646430   2.8404940 168.1749600  14.3809790   7.2829000
 168.1768040  14.8982180   6.4774900 167.3453910  13.9039970   7.2598930
 169.4252450  24.0204970   5.4602500 169.0921830  24.6473890   6.1023570
 169.6019130  24.5466850   4.6804170 167.8564930  16.0919750   5.2899450
 168.1981740  16.9361800   4.9953320 166.9180740  16.2403490   5.4064790
 168.6371550  25.9885770   7.2751680 169.2545550  26.6636850   6.9936130
 167.7764670  26.3973750   7.1839180 170.0011920  25.8583150   3.2963100
 169.7040210  25.2528620   2.6170880 170.9511740  25.8960460   3.1852460
 168.2458840  18.9458800   4.9122930 168.7973430  19.0554140   4.1376180
 168.7602350  19.3196400   5.6278160 169.0930350  25.5964840   9.9470900
 168.1958880  25.8204810  10.1944300 169.1183220  25.7199780   8.9982300
 167.9201570  22.4678160   8.5228270 167.7809340  23.3400960   8.8915670
 167.0382930  22.1250970   8.3776210 169.7181920  28.4099860  10.7313420
 169.6897350  28.8142810   9.8641850 169.5546890  27.4810220  10.5685020
 163.8720220  24.2375710   4.4399180 163.9500640  24.3724480   3.4954900
 164.4861900  23.5291600   4.6327300 163.9279740  25.2789880   6.9793640
 164.0910780  24.8095240   6.1613010 164.3932190  24.7713440   7.6442480
 168.6998510  14.4095640   2.0154210 168.2566660  15.1905180   1.6838730
 169.2583500  14.7325530   2.7225150 172.9868320  17.2764160   7.6189530
 172.5247690  17.4847180   8.4309470 172.5846430  16.4623510   7.3160200
 170.7374410  14.9542970   3.8743810 171.0346740  15.8605800   3.7935830
 171.2859970  14.4661750   3.2603380 170.9311940  20.4314790  10.4095730
 170.8355540  19.4909520  10.2596130 171.7743920  20.6529860  10.0143800
 166.0622480  16.8428460   8.5629510 165.6685870  17.6903670   8.7702290
 165.3740880  16.2054830   8.7538150 172.6367530  16.9263430  11.6326250
 171.9465850  16.7335630  12.2672340 173.3799830  17.2098070  12.1650550
 163.3639530  14.7656920   2.5959590 163.0752580  15.3359780   3.3084570
 164.1085290  14.2861370   2.9590820 171.3507890  17.4416070   2.8732660
 171.3543950  17.0006020   2.0237200 172.2459010  17.7633400   2.9804480
 167.2010270  17.3242560   1.8326870 166.8610320  17.8017790   2.5893920
 166.4387590  16.8707680   1.4727970 165.5018720  24.6541310   9.1389450
 165.1173510  24.0134980   9.7372410 165.8130910  25.3577430   9.7084180
 171.6515860  21.5017850   4.6198070 172.0185990  21.0276420   5.3659410
 171.4620920  22.3759420   4.9606410 169.4415230  20.5426490   6.9382280
 169.1372300  21.4218470   7.1632640 170.3961690  20.6026280   6.9739720
 174.1103800  23.8161900   9.2144520 174.0441110  22.8957570   8.9602110
 173.4808940  23.9137340   9.9289160 165.4978960  21.3829230   8.0853640
 165.1393900  22.0483080   8.6726980 165.2033520  20.5512780   8.4566260
 168.6992080  21.8413470  10.9693190 168.3992220  21.9870650  10.0721010
 169.4703320  21.2818760  10.8766580 174.0420530  26.6382470   8.9648320
 174.0565070  25.7063430   8.7467230 173.3345630  26.7242230   9.6038090
 173.4754430  28.2800040   6.0588820 174.1196650  28.4859420   6.7362240
 173.8383870  27.5188440   5.6059670 164.0727530  14.8722470   8.7625740
 163.3586050  15.0719390   9.3678350 164.4922570  14.0962040   9.1340540
 164.3600120  28.8602730   9.7492270 164.4691240  27.9197470   9.6087660
 163.7080680  29.1257480   9.1006000 172.3512710  27.1318620  11.1490390
 172.0309580  26.4127860  11.6936080 171.6771070  27.8073690  11.2226450
 172.5268300  20.0184370   6.7365160 173.0253550  20.4930190   7.4017010
 172.6691250  19.0947890   6.9435190 167.5000280  30.7425570   2.3726300
 168.2362760  30.1941030   2.6434870 167.8841200  31.6081580   2.2332290
 166.5058560  29.9271640  11.5611880 167.3071290  30.2483690  11.9747280
 165.9910380  29.5667220  12.2831790 164.2256370  22.4145100  10.5047930
 164.7295390  21.8352380  11.0764160 163.4863790  22.6985330  11.0424300
 171.2794310  23.8216090  10.0383450 170.5139980  24.3901090   9.9538120
 171.4610270  23.5292300   9.1451680 166.2579450  20.5574690  11.3998000
 166.2984790  20.2588560  12.3083230 167.1124950  20.9582300  11.2405520
 168.1985260  19.1366790   9.3672490 167.6681720  18.6457740   8.7395830
 168.8673330  19.5650990   8.8330420 168.6857560  16.1029160   9.4469780
 168.5914430  15.4849910   8.7220650 168.1054950  16.8295450   9.2199690
 171.4519000  14.6602400   6.4797170 171.0036300  14.6826660   5.6342720
 170.8184200  14.2621420   7.0767470 169.7085970  29.8609740   8.2167340
 169.1707060  30.5855800   7.8976040 169.9619930  29.3840080   7.4264680
 170.9611220  17.8294260   9.7423270 171.5510910  17.5210110  10.4301090
 170.1431460  17.3574010   9.8983170 172.5648180  31.0960950   8.4753990
 172.4906880  31.9996090   8.7826360 171.6627020  30.7772850   8.4476060
 163.9675470  28.4235540   1.7787610 164.2978480  27.5556600   1.5466250
 164.3966470  28.6294060   2.6092570 164.4565680  29.2906130   4.5169240
 164.0196670  29.4706930   5.3493390 165.0243360  30.0480750   4.3750960
 165.3266040  22.1878930   5.4161460 165.6939080  22.1006330   6.2957480
 164.7576860  21.4245480   5.3168320 164.8782040  19.0988020   9.3219880
 163.9838090  19.0654780   9.6613590 165.4179590  19.2974810  10.0871130
 165.3821750  13.3736350   3.6703100 166.0297940  12.8233730   3.2298260
 165.8023590  13.6279500   4.4918910 165.1353750  13.5292020   6.4128420
 164.7868570  13.9855840   7.1786600 164.8041450  12.6349150   6.4950850
 166.7418120  26.7011620  10.5781610 166.6987750  26.3304530  11.4596070
 166.8729130  27.6389190  10.7183430 170.4424150  28.2571210   6.1791330
 170.2015510  28.5245770   5.2921850 171.3826790  28.4276940   6.2342190
 172.6478570  14.7203900   9.9347840 172.5867460  15.3125730  10.6843250
 173.5878950  14.6129860   9.7898100 165.8074390  13.0568220   9.6879190
 166.3557380  12.8756270   8.9245300 165.8729700  12.2662330  10.2235500
 166.5806150  29.6473870   7.6979390 165.9866470  29.5158570   8.4369430
 166.5729990  28.8112010   7.2321490 166.2118380  27.0132250   6.6487430
 165.4852440  26.3937540   6.5813380 166.2727530  27.4072860   5.7785510
 169.8163480  29.2277250   3.4336840 170.3328500  28.6164610   2.9085100
 170.4660860  29.7306030   3.9247850 172.5558980  30.1185740   4.2605820
 172.8436790  29.8640040   3.3838830 173.0682200  29.5663100   4.8511390
 173.7735990  13.8575940   4.8402330 172.9907780  14.3321440   5.1199090
 173.4798920  12.9530770   4.7315510 172.6231340  31.0401840  11.6274020
 173.5498650  30.8046110  11.6709980 172.6081770  31.8673840  11.1460050
 169.8094950  13.7046590  11.3915900 169.5279220  14.2080190  10.6276720
 170.1914650  12.9068340  11.0258030 173.4486600   4.1428170  59.3114340
 172.6728700   3.6628610  59.6012910 174.0999530   3.4633820  59.1370500
 163.8377390   2.0155520  59.8572190 164.4093500   1.2477720  59.8575830
 163.8378930   2.3144280  58.9478800 173.6957340  10.8346370  57.7117460
 173.0768780  11.2903870  57.1411900 174.5509120  10.9897830  57.3107160
 172.8895590   6.8185360  59.3184500 172.8203870   5.8775300  59.1573630
 173.6515450   6.9086770  59.8907070 163.9303890   6.4042140  52.4789000
 163.5531870   6.8929240  51.7473900 164.1876960   7.0767420  53.1095530
 173.9273580   2.8707360  54.6734630 173.0002860   2.8044740  54.9023100
 174.0798400   3.8087490  54.5589870 169.5330220   3.3972100  57.4554360
 169.1287220   2.6849350  56.9600260 169.6193340   3.0525340  58.3442400
 170.0011920   7.0839660  59.6193570 169.7040210   6.4785130  58.9401350
 170.9511740   7.1216970  59.5082930 174.2430950   8.6110540  56.1523870
 174.6826860   9.3534870  55.7379260 174.1817840   8.8537110  57.0762830
 166.2334850   2.2917080  54.9561010 166.1132450   3.0179170  54.3442280
 165.9235740   1.5219990  54.4788920 165.1167850   7.1632410  57.1735830
 164.7095930   7.3047000  56.3189430 166.0080860   6.8792570  56.9707040
 169.3889510  11.3778190  55.2858500 169.2131990  10.4613730  55.0726300
 168.5345250  11.7365480  55.5256300 170.4249540   1.9785800  51.5853190
 169.8566440   1.5304050  50.9589100 171.1338540   2.3378580  51.0518340
 167.9697020   5.9743990  53.8579600 167.1959280   5.4341610  53.6978320
 168.6991650   5.4550600  53.5197360 168.0134420   5.6424370  57.4958410
 168.5313090   4.8392630  57.4415300 167.5618440   5.5803510  58.3375240
 172.9003920   6.9090650  52.7685710 173.2419620   7.6532880  52.2729030
 172.0716630   7.2221770  53.1310540 171.8694610   6.9904180  55.5401630
 172.5565740   7.5373390  55.9209220 171.0827030   7.5344910  55.5751240
 164.0087010   2.6077000  51.0318710 164.8781860   2.8901800  51.3154630
 163.5177330   3.4212870  50.9167520 171.1721820   3.9950210  55.1526990
 171.6284600   4.8055460  55.3787180 170.8210030   3.6773350  55.9845480
 164.3758260  11.8204380  51.5980340 164.7355900  12.4193720  50.9437610
 164.2350600  12.3664270  52.3715370 170.3926880   9.2035580  52.4154010
 170.3836980   9.9365270  51.7998520 169.4725240   8.9567160  52.5080970
 165.9933520   4.4250470  53.1600770 165.3861470   5.1649370  53.1696070
 166.4682870   4.5149830  52.3338970 173.3786480   9.2663820  51.0779200
 173.4798460   9.0627810  50.1481180 172.4788220   9.0122100  51.2826980
 172.0204590  11.7850140  55.7726870 172.2746090  11.7471530  54.8506240
 171.0717070  11.6583470  55.7655120 168.0038810   4.3861620  50.9089340
 168.7702080   4.2742980  51.4714770 168.0813500   3.6899590  50.2566110
 167.5000280  11.9682080  58.6956770 168.2362760  11.4197540  58.9665340
 167.8841200  12.8338090  58.5562760 164.3845760   8.0355650  54.5698280
 163.4585540   8.2776790  54.5603690 164.8502190   8.8629910  54.4483030
 170.6102590  11.1412390  50.5182340 171.4031200  11.4301220  50.0664130
 170.0906940  10.7104560  49.8394820 171.1279990   6.3615800  50.3824690
 171.0230630   5.7468150  51.1086070 170.9604210   5.8381690  49.5987700
 170.0357840   4.3826750  52.8831980 170.4574260   4.2166620  53.7263370
 170.1608680   3.5726980  52.3887120 172.5485480   3.4064360  50.1309080
 173.0691140   2.6913380  49.7650230 173.1953880   4.0450230  50.4309590
 173.1133510  11.4875970  52.4210820 174.0084300  11.8260940  52.4429580
 173.1451140  10.7655380  51.7935100 166.7529670   6.8603020  50.6497820
 167.1904540   7.4032690  51.3055400 167.2377400   6.0349970  50.6594160
 163.9675470   9.6492050  58.1018080 164.2978480   8.7813110  57.8696720
 164.3966470   9.8550570  58.9323040 168.5637390   7.9801060  55.7620050
 168.2632930   7.8566030  56.6623960 168.4574880   7.1209650  55.3535780
 164.2890110   3.0282870  57.1988590 163.6338950   2.7594510  56.5548290
 165.1268060   2.9187350  56.7490570 169.8163480  10.4533760  59.7567310
 170.3328500   9.8421120  59.2315570 170.4660860  10.9562540  60.2478320
 164.4948380  11.5563150  56.1814660 164.3270420  10.9233830  56.8796550
 163.6282890  11.7622550  55.8308850 166.1011080  10.2496380  53.6264800
 165.5758700  10.6304410  52.9226760 166.0255660  10.8747150  54.3474510
 168.7004050  12.1978760  52.5014050 169.4322870  11.9138040  51.9537940
 168.9597720  11.9592040  53.3913430 167.8618840   8.3143490  52.5060380
 167.2327720   8.7828590  53.0546210 167.9766670   7.4692710  52.9406570
 173.4486600   4.1428170  40.5370850 172.6728700   3.6628610  40.8269420
 174.0999530   3.4633820  40.3627010 167.4652430   4.4547980  41.4146610
 166.6337310   4.1996690  41.8143120 168.0733410   4.5258750  42.1504530
 167.4453690   8.4888070  41.6104630 167.7481730   7.5985810  41.4314850
 168.1897280   9.0458290  41.3826880 163.8377390   2.0155520  41.0828700
 164.4093500   1.2477720  41.0832340 163.8378930   2.3144280  40.1735310
 173.6957340  10.8346370  38.9373970 173.0768780  11.2903870  38.3668410
 174.5509120  10.9897830  38.5363670 172.8895590   6.8185360  40.5441010
 172.8203870   5.8775300  40.3830140 173.6515450   6.9086770  41.1163580
 169.4252450   5.2461480  43.0089480 169.0921830   5.8730400  43.6510550
 169.6019130   5.7723360  42.2291150 168.6371550   7.2142280  44.8238660
 169.2545550   7.8893360  44.5423110 167.7764670   7.6230260  44.7326160
 163.9303890   6.4042140  33.7045510 163.5531870   6.8929240  32.9730410
 164.1876960   7.0767420  34.3352040 173.9273580   2.8707360  35.8991140
 173.0002860   2.8044740  36.1279610 174.0798400   3.8087490  35.7846380
 169.5330220   3.3972100  38.6810870 169.1287220   2.6849350  38.1856770
 169.6193340   3.0525340  39.5698910 170.0011920   7.0839660  40.8450080
 169.7040210   6.4785130  40.1657860 170.9511740   7.1216970  40.7339440
 169.0930350   6.8221350  47.4957880 168.1958880   7.0461320  47.7431280
 169.1183220   6.9456290  46.5469280 167.9201570   3.6934670  46.0715250
 167.7809340   4.5657470  46.4402650 167.0382930   3.3507480  45.9263190
 174.2430950   8.6110540  37.3780380 174.6826860   9.3534870  36.9635770
 174.1817840   8.8537110  38.3019340 169.7181920   9.6356370  48.2800400
 169.6897350  10.0399320  47.4128830 169.5546890   8.7066730  48.1172000
 166.2334850   2.2917080  36.1817520 166.1132450   3.0179170  35.5698790
 165.9235740   1.5219990  35.7045430 163.8720220   5.4632220  41.9886160
 163.9500640   5.5980990  41.0441880 164.4861900   4.7548110  42.1814280
 165.1167850   7.1632410  38.3992340 164.7095930   7.3047000  37.5445940
 166.0080860   6.8792570  38.1963550 169.3889510  11.3778190  36.5115010
 169.2131990  10.4613730  36.2982810 168.5345250  11.7365480  36.7512810
 163.9279740   6.5046390  44.5280620 164.0910780   6.0351750  43.7099990
 164.3932190   5.9969950  45.1929460 170.4249540   1.9785800  32.8109700
 169.8566440   1.5304050  32.1845610 171.1338540   2.3378580  32.2774850
 165.5018720   5.8797820  46.6876430 165.1173510   5.2391490  47.2859390
 165.8130910   6.5833940  47.2571160 171.6515860   2.7274360  42.1685050
 172.0185990   2.2532930  42.9146390 171.4620920   3.6015930  42.5093390
 169.4415230   1.7683000  44.4869260 169.1372300   2.6474980  44.7119620
 170.3961690   1.8282790  44.5226700 167.9697020   5.9743990  35.0836110
 167.1959280   5.4341610  34.9234830 168.6991650   5.4550600  34.7453870
 174.1103800   5.0418410  46.7631500 174.0441110   4.1214080  46.5089090
 173.4808940   5.1393850  47.4776140 168.0134420   5.6424370  38.7214920
 168.5313090   4.8392630  38.6671810 167.5618440   5.5803510  39.5631750
 172.9003920   6.9090650  33.9942220 173.2419620   7.6532880  33.4985540
 172.0716630   7.2221770  34.3567050 165.4978960   2.6085740  45.6340620
 165.1393900   3.2739590  46.2213960 165.2033520   1.7769290  46.0053240
 168.6992080   3.0669980  48.5180170 168.3992220   3.2127160  47.6207990
 169.4703320   2.5075270  48.4253560 174.0420530   7.8638980  46.5135300
 174.0565070   6.9319940  46.2954210 173.3345630   7.9498740  47.1525070
 171.8694610   6.9904180  36.7658140 172.5565740   7.5373390  37.1465730
 171.0827030   7.5344910  36.8007750 164.0087010   2.6077000  32.2575220
 164.8781860   2.8901800  32.5411140 163.5177330   3.4212870  32.1424030
 171.1721820   3.9950210  36.3783500 171.6284600   4.8055460  36.6043690
 170.8210030   3.6773350  37.2101990 173.4754430   9.5056550  43.6075800
 174.1196650   9.7115930  44.2849220 173.8383870   8.7444950  43.1546650
 164.3758260  11.8204380  32.8236850 164.7355900  12.4193720  32.1694120
 164.2350600  12.3664270  33.5971880 164.3600120  10.0859240  47.2979250
 164.4691240   9.1453980  47.1574640 163.7080680  10.3513990  46.6492980
 172.3512710   8.3575130  48.6977370 172.0309580   7.6384370  49.2423060
 171.6771070   9.0330200  48.7713430 170.3926880   9.2035580  33.6410520
 170.3836980   9.9365270  33.0255030 169.4725240   8.9567160  33.7337480
 165.9933520   4.4250470  34.3857280 165.3861470   5.1649370  34.3952580
 166.4682870   4.5149830  33.5595480 173.3786480   9.2663820  32.3035710
 173.4798460   9.0627810  31.3737690 172.4788220   9.0122100  32.5083490
 172.0204590  11.7850140  36.9983380 172.2746090  11.7471530  36.0762750
 171.0717070  11.6583470  36.9911630 168.0038810   4.3861620  32.1345850
 168.7702080   4.2742980  32.6971280 168.0813500   3.6899590  31.4822620
 167.5000280  11.9682080  39.9213280 168.2362760  11.4197540  40.1921850
 167.8841200  12.8338090  39.7819270 164.3845760   8.0355650  35.7954790
 163.4585540   8.2776790  35.7860200 164.8502190   8.8629910  35.6739540
 166.5058560  11.1528150  49.1098860 167.3071290  11.4740200  49.5234260
 165.9910380  10.7923730  49.8318770 170.6102590  11.1412390  31.7438850
 171.4031200  11.4301220  31.2920640 170.0906940  10.7104560  31.0651330
 164.2256370   3.6401610  48.0534910 164.7295390   3.0608890  48.6251140
 163.4863790   3.9241840  48.5911280 171.1279990   6.3615800  31.6081200
 171.0230630   5.7468150  32.3342580 170.9604210   5.8381690  30.8244210
 171.2794310   5.0472600  47.5870430 170.5139980   5.6157600  47.5025100
 171.4610270   4.7548810  46.6938660 166.2579450   1.7831200  48.9484980
 166.2984790   1.4845070  49.8570210 167.1124950   2.1838810  48.7892500
 170.0357840   4.3826750  34.1088490 170.4574260   4.2166620  34.9519880
 170.1608680   3.5726980  33.6143630 172.5485480   3.4064360  31.3565590
 173.0691140   2.6913380  30.9906740 173.1953880   4.0450230  31.6566100
 171.8578550   4.7813240  44.6496590 172.2766660   5.6245970  44.4772830
 170.9387180   4.9185280  44.4203370 169.7085970  11.0866250  45.7654320
 169.1707060  11.8112310  45.4463020 169.9619930  10.6096590  44.9751660
 172.5648180  12.3217460  46.0240970 172.4906880  13.2252600  46.3313340
 171.6627020  12.0029360  45.9963040 173.1133510  11.4875970  33.6467330
 174.0084300  11.8260940  33.6686090 173.1451140  10.7655380  33.0191610
 166.7529670   6.8603020  31.8754330 167.1904540   7.4032690  32.5311910
 167.2377400   6.0349970  31.8850670 163.9675470   9.6492050  39.3274590
 164.2978480   8.7813110  39.0953230 164.3966470   9.8550570  40.1579550
 168.5637390   7.9801060  36.9876560 168.2632930   7.8566030  37.8880470
 168.4574880   7.1209650  36.5792290 164.4565680  10.5162640  42.0656220
 164.0196670  10.6963440  42.8980370 165.0243360  11.2737260  41.9237940
 164.2890110   3.0282870  38.4245100 163.6338950   2.7594510  37.7804800
 165.1268060   2.9187350  37.9747080 165.3266040   3.4135440  42.9648440
 165.6939080   3.3262840  43.8444460 164.7576860   2.6501990  42.8655300
 166.7418120   7.9268130  48.1268590 166.6987750   7.5561040  49.0083050
 166.8729130   8.8645700  48.2670410 170.4424150   9.4827720  43.7278310
 170.2015510   9.7502280  42.8408830 171.3826790   9.6533450  43.7829170
 166.5806150  10.8730380  45.2466370 165.9866470  10.7415080  45.9856410
 166.5729990  10.0368520  44.7808470 166.2118380   8.2388760  44.1974410
 165.4852440   7.6194050  44.1300360 166.2727530   8.6329370  43.3272490
 169.8163480  10.4533760  40.9823820 170.3328500   9.8421120  40.4572080
 170.4660860  10.9562540  41.4734830 172.5558980  11.3442250  41.8092800
 172.8436790  11.0896550  40.9325810 173.0682200  10.7919610  42.3998370
 164.4948380  11.5563150  37.4071170 164.3270420  10.9233830  38.1053060
 163.6282890  11.7622550  37.0565360 166.1011080  10.2496380  34.8521310
 165.5758700  10.6304410  34.1483270 166.0255660  10.8747150  35.5731020
 172.6231340  12.2658350  49.1761000 173.5498650  12.0302620  49.2196960
 172.6081770  13.0930350  48.6947030 168.7004050  12.1978760  33.7270560
 169.4322870  11.9138040  33.1794450 168.9597720  11.9592040  34.6169940
 167.8618840   8.3143490  33.7316890 167.2327720   8.7828590  34.2802720
 167.9766670   7.4692710  34.1663080 173.4486600   4.1428170  21.7627360
 172.6728700   3.6628610  22.0525930 174.0999530   3.4633820  21.5883520
 167.4652430   4.4547980  22.6403120 166.6337310   4.1996690  23.0399630
 168.0733410   4.5258750  23.3761040 167.4453690   8.4888070  22.8361140
 167.7481730   7.5985810  22.6571360 168.1897280   9.0458290  22.6083390
 163.8377390   2.0155520  22.3085210 164.4093500   1.2477720  22.3088850
 163.8378930   2.3144280  21.3991820 173.6957340  10.8346370  20.1630480
 173.0768780  11.2903870  19.5924920 174.5509120  10.9897830  19.7620180
 172.8895590   6.8185360  21.7697520 172.8203870   5.8775300  21.6086650
 173.6515450   6.9086770  22.3420090 169.4252450   5.2461480  24.2345990
 169.0921830   5.8730400  24.8767060 169.6019130   5.7723360  23.4547660
 168.6371550   7.2142280  26.0495170 169.2545550   7.8893360  25.7679620
 167.7764670   7.6230260  25.9582670 163.9303890   6.4042140  14.9302020
 163.5531870   6.8929240  14.1986920 164.1876960   7.0767420  15.5608550
 173.9273580   2.8707360  17.1247650 173.0002860   2.8044740  17.3536120
 174.0798400   3.8087490  17.0102890 169.5330220   3.3972100  19.9067380
 169.1287220   2.6849350  19.4113280 169.6193340   3.0525340  20.7955420
 170.0011920   7.0839660  22.0706590 169.7040210   6.4785130  21.3914370
 170.9511740   7.1216970  21.9595950 169.0930350   6.8221350  28.7214390
 168.1958880   7.0461320  28.9687790 169.1183220   6.9456290  27.7725790
 167.9201570   3.6934670  27.2971760 167.7809340   4.5657470  27.6659160
 167.0382930   3.3507480  27.1519700 174.2430950   8.6110540  18.6036890
 174.6826860   9.3534870  18.1892280 174.1817840   8.8537110  19.5275850
 169.7181920   9.6356370  29.5056910 169.6897350  10.0399320  28.6385340
 169.5546890   8.7066730  29.3428510 166.2334850   2.2917080  17.4074030
 166.1132450   3.0179170  16.7955300 165.9235740   1.5219990  16.9301940
 163.8720220   5.4632220  23.2142670 163.9500640   5.5980990  22.2698390
 164.4861900   4.7548110  23.4070790 165.1167850   7.1632410  19.6248850
 164.7095930   7.3047000  18.7702450 166.0080860   6.8792570  19.4220060
 169.3889510  11.3778190  17.7371520 169.2131990  10.4613730  17.5239320
 168.5345250  11.7365480  17.9769320 163.9279740   6.5046390  25.7537130
 164.0910780   6.0351750  24.9356500 164.3932190   5.9969950  26.4185970
 170.4249540   1.9785800  14.0366210 169.8566440   1.5304050  13.4102120
 171.1338540   2.3378580  13.5031360 165.5018720   5.8797820  27.9132940
 165.1173510   5.2391490  28.5115900 165.8130910   6.5833940  28.4827670
 171.6515860   2.7274360  23.3941560 172.0185990   2.2532930  24.1402900
 171.4620920   3.6015930  23.7349900 169.4415230   1.7683000  25.7125770
 169.1372300   2.6474980  25.9376130 170.3961690   1.8282790  25.7483210
 167.9697020   5.9743990  16.3092620 167.1959280   5.4341610  16.1491340
 168.6991650   5.4550600  15.9710380 174.1103800   5.0418410  27.9888010
 174.0441110   4.1214080  27.7345600 173.4808940   5.1393850  28.7032650
 168.0134420   5.6424370  19.9471430 168.5313090   4.8392630  19.8928320
 167.5618440   5.5803510  20.7888260 172.9003920   6.9090650  15.2198730
 173.2419620   7.6532880  14.7242050 172.0716630   7.2221770  15.5823560
 165.4978960   2.6085740  26.8597130 165.1393900   3.2739590  27.4470470
 165.2033520   1.7769290  27.2309750 168.6992080   3.0669980  29.7436680
 168.3992220   3.2127160  28.8464500 169.4703320   2.5075270  29.6510070
 174.0420530   7.8638980  27.7391810 174.0565070   6.9319940  27.5210720
 173.3345630   7.9498740  28.3781580 171.8694610   6.9904180  17.9914650
 172.5565740   7.5373390  18.3722240 171.0827030   7.5344910  18.0264260
 164.0087010   2.6077000  13.4831730 164.8781860   2.8901800  13.7667650
 163.5177330   3.4212870  13.3680540 171.1721820   3.9950210  17.6040010
 171.6284600   4.8055460  17.8300200 170.8210030   3.6773350  18.4358500
 173.4754430   9.5056550  24.8332310 174.1196650   9.7115930  25.5105730
 173.8383870   8.7444950  24.3803160 164.3758260  11.8204380  14.0493360
 164.7355900  12.4193720  13.3950630 164.2350600  12.3664270  14.8228390
 164.3600120  10.0859240  28.5235760 164.4691240   9.1453980  28.3831150
 163.7080680  10.3513990  27.8749490 172.3512710   8.3575130  29.9233880
 172.0309580   7.6384370  30.4679570 171.6771070   9.0330200  29.9969940
 170.3926880   9.2035580  14.8667030 170.3836980   9.9365270  14.2511540
 169.4725240   8.9567160  14.9593990 165.9933520   4.4250470  15.6113790
 165.3861470   5.1649370  15.6209090 166.4682870   4.5149830  14.7851990
 173.3786480   9.2663820  13.5292220 173.4798460   9.0627810  12.5994200
 172.4788220   9.0122100  13.7340000 172.0204590  11.7850140  18.2239890
 172.2746090  11.7471530  17.3019260 171.0717070  11.6583470  18.2168140
 168.0038810   4.3861620  13.3602360 168.7702080   4.2742980  13.9227790
 168.0813500   3.6899590  12.7079130 167.5000280  11.9682080  21.1469790
 168.2362760  11.4197540  21.4178360 167.8841200  12.8338090  21.0075780
 164.3845760   8.0355650  17.0211300 163.4585540   8.2776790  17.0116710
 164.8502190   8.8629910  16.8996050 166.5058560  11.1528150  30.3355370
 167.3071290  11.4740200  30.7490770 165.9910380  10.7923730  31.0575280
 170.6102590  11.1412390  12.9695360 171.4031200  11.4301220  12.5177150
 170.0906940  10.7104560  12.2907840 164.2256370   3.6401610  29.2791420
 164.7295390   3.0608890  29.8507650 163.4863790   3.9241840  29.8167790
 171.1279990   6.3615800  12.8337710 171.0230630   5.7468150  13.5599090
 170.9604210   5.8381690  12.0500720 171.2794310   5.0472600  28.8126940
 170.5139980   5.6157600  28.7281610 171.4610270   4.7548810  27.9195170
 166.2579450   1.7831200  30.1741490 166.2984790   1.4845070  31.0826720
 167.1124950   2.1838810  30.0149010 170.0357840   4.3826750  15.3345000
 170.4574260   4.2166620  16.1776390 170.1608680   3.5726980  14.8400140
 172.5485480   3.4064360  12.5822100 173.0691140   2.6913380  12.2163250
 173.1953880   4.0450230  12.8822610 171.8578550   4.7813240  25.8753100
 172.2766660   5.6245970  25.7029340 170.9387180   4.9185280  25.6459880
 169.7085970  11.0866250  26.9910830 169.1707060  11.8112310  26.6719530
 169.9619930  10.6096590  26.2008170 172.5648180  12.3217460  27.2497480
 172.4906880  13.2252600  27.5569850 171.6627020  12.0029360  27.2219550
 173.1133510  11.4875970  14.8723840 174.0084300  11.8260940  14.8942600
 173.1451140  10.7655380  14.2448120 166.7529670   6.8603020  13.1010840
 167.1904540   7.4032690  13.7568420 167.2377400   6.0349970  13.1107180
 163.9675470   9.6492050  20.5531100 164.2978480   8.7813110  20.3209740
 164.3966470   9.8550570  21.3836060 168.5637390   7.9801060  18.2133070
 168.2632930   7.8566030  19.1136980 168.4574880   7.1209650  17.8048800
 164.4565680  10.5162640  23.2912730 164.0196670  10.6963440  24.1236880
 165.0243360  11.2737260  23.1494450 164.2890110   3.0282870  19.6501610
 163.6338950   2.7594510  19.0061310 165.1268060   2.9187350  19.2003590
 165.3266040   3.4135440  24.1904950 165.6939080   3.3262840  25.0700970
 164.7576860   2.6501990  24.0911810 166.7418120   7.9268130  29.3525100
 166.6987750   7.5561040  30.2339560 166.8729130   8.8645700  29.4926920
 170.4424150   9.4827720  24.9534820 170.2015510   9.7502280  24.0665340
 171.3826790   9.6533450  25.0085680 166.5806150  10.8730380  26.4722880
 165.9866470  10.7415080  27.2112920 166.5729990  10.0368520  26.0064980
 166.2118380   8.2388760  25.4230920 165.4852440   7.6194050  25.3556870
 166.2727530   8.6329370  24.5529000 169.8163480  10.4533760  22.2080330
 170.3328500   9.8421120  21.6828590 170.4660860  10.9562540  22.6991340
 172.5558980  11.3442250  23.0349310 172.8436790  11.0896550  22.1582320
 173.0682200  10.7919610  23.6254880 164.4948380  11.5563150  18.6327680
 164.3270420  10.9233830  19.3309570 163.6282890  11.7622550  18.2821870
 166.1011080  10.2496380  16.0777820 165.5758700  10.6304410  15.3739780
 166.0255660  10.8747150  16.7987530 172.6231340  12.2658350  30.4017510
 173.5498650  12.0302620  30.4453470 172.6081770  13.0930350  29.9203540
 168.7004050  12.1978760  14.9527070 169.4322870  11.9138040  14.4050960
 168.9597720  11.9592040  15.8426450 167.8618840   8.3143490  14.9573400
 167.2327720   8.7828590  15.5059230 167.9766670   7.4692710  15.3919590
 173.4486600   4.1428170   2.9883870 172.6728700   3.6628610   3.2782440
 174.0999530   3.4633820   2.8140030 167.4652430   4.4547980   3.8659630
 166.6337310   4.1996690   4.2656140 168.0733410   4.5258750   4.6017550
 167.4453690   8.4888070   4.0617650 167.7481730   7.5985810   3.8827870
 168.1897280   9.0458290   3.8339900 163.8377390   2.0155520   3.5341720
 164.4093500   1.2477720   3.5345360 163.8378930   2.3144280   2.6248330
 172.8895590   6.8185360   2.9954030 172.8203870   5.8775300   2.8343160
 173.6515450   6.9086770   3.5676600 169.4252450   5.2461480   5.4602500
 169.0921830   5.8730400   6.1023570 169.6019130   5.7723360   4.6804170
 168.6371550   7.2142280   7.2751680 169.2545550   7.8893360   6.9936130
 167.7764670   7.6230260   7.1839180 170.0011920   7.0839660   3.2963100
 169.7040210   6.4785130   2.6170880 170.9511740   7.1216970   3.1852460
 169.0930350   6.8221350   9.9470900 168.1958880   7.0461320  10.1944300
 169.1183220   6.9456290   8.9982300 167.9201570   3.6934670   8.5228270
 167.7809340   4.5657470   8.8915670 167.0382930   3.3507480   8.3776210
 169.7181920   9.6356370  10.7313420 169.6897350  10.0399320   9.8641850
 169.5546890   8.7066730  10.5685020 163.8720220   5.4632220   4.4399180
 163.9500640   5.5980990   3.4954900 164.4861900   4.7548110   4.6327300
 163.9279740   6.5046390   6.9793640 164.0910780   6.0351750   6.1613010
 164.3932190   5.9969950   7.6442480 165.5018720   5.8797820   9.1389450
 165.1173510   5.2391490   9.7372410 165.8130910   6.5833940   9.7084180
 171.6515860   2.7274360   4.6198070 172.0185990   2.2532930   5.3659410
 171.4620920   3.6015930   4.9606410 169.4415230   1.7683000   6.9382280
 169.1372300   2.6474980   7.1632640 170.3961690   1.8282790   6.9739720
 174.1103800   5.0418410   9.2144520 174.0441110   4.1214080   8.9602110
 173.4808940   5.1393850   9.9289160 165.4978960   2.6085740   8.0853640
 165.1393900   3.2739590   8.6726980 165.2033520   1.7769290   8.4566260
 168.6992080   3.0669980  10.9693190 168.3992220   3.2127160  10.0721010
 169.4703320   2.5075270  10.8766580 174.0420530   7.8638980   8.9648320
 174.0565070   6.9319940   8.7467230 173.3345630   7.9498740   9.6038090
 173.4754430   9.5056550   6.0588820 174.1196650   9.7115930   6.7362240
 173.8383870   8.7444950   5.6059670 164.3600120  10.0859240   9.7492270
 164.4691240   9.1453980   9.6087660 163.7080680  10.3513990   9.1006000
 172.3512710   8.3575130  11.1490390 172.0309580   7.6384370  11.6936080
 171.6771070   9.0330200  11.2226450 167.5000280  11.9682080   2.3726300
 168.2362760  11.4197540   2.6434870 167.8841200  12.8338090   2.2332290
 166.5058560  11.1528150  11.5611880 167.3071290  11.4740200  11.9747280
 165.9910380  10.7923730  12.2831790 164.2256370   3.6401610  10.5047930
 164.7295390   3.0608890  11.0764160 163.4863790   3.9241840  11.0424300
 171.2794310   5.0472600  10.0383450 170.5139980   5.6157600   9.9538120
 171.4610270   4.7548810   9.1451680 166.2579450   1.7831200  11.3998000
 166.2984790   1.4845070  12.3083230 167.1124950   2.1838810  11.2405520
 171.8578550   4.7813240   7.1009610 172.2766660   5.6245970   6.9285850
 170.9387180   4.9185280   6.8716390 169.7085970  11.0866250   8.2167340
 169.1707060  11.8112310   7.8976040 169.9619930  10.6096590   7.4264680
 172.5648180  12.3217460   8.4753990 172.4906880  13.2252600   8.7826360
 171.6627020  12.0029360   8.4476060 163.9675470   9.6492050   1.7787610
 164.2978480   8.7813110   1.5466250 164.3966470   9.8550570   2.6092570
 164.4565680  10.5162640   4.5169240 164.0196670  10.6963440   5.3493390
 165.0243360  11.2737260   4.3750960 165.3266040   3.4135440   5.4161460
 165.6939080   3.3262840   6.2957480 164.7576860   2.6501990   5.3168320
 166.7418120   7.9268130  10.5781610 166.6987750   7.5561040  11.4596070
 166.8729130   8.8645700  10.7183430 170.4424150   9.4827720   6.1791330
 170.2015510   9.7502280   5.2921850 171.3826790   9.6533450   6.2342190
 166.5806150  10.8730380   7.6979390 165.9866470  10.7415080   8.4369430
 166.5729990  10.0368520   7.2321490 166.2118380   8.2388760   6.6487430
 165.4852440   7.6194050   6.5813380 166.2727530   8.6329370   5.7785510
 169.8163480  10.4533760   3.4336840 170.3328500   9.8421120   2.9085100
 170.4660860  10.9562540   3.9247850 172.5558980  11.3442250   4.2605820
 172.8436790  11.0896550   3.3838830 173.0682200  10.7919610   4.8511390
 172.6231340  12.2658350  11.6274020 173.5498650  12.0302620  11.6709980
 172.6081770  13.0930350  11.1460050 156.5425070  96.2366600  57.4305070
 156.4619120  95.3221210  57.1596780 156.1289490  96.7333670  56.7244780
 154.6743110  98.0145620  59.3114340 153.8985210  97.5346060  59.6012910
 155.3256040  97.3351270  59.1370500 147.1000890  93.2867320  53.9732490
 146.2117590  93.6283290  53.8712370 147.3842080  93.0867640  53.0813320
 145.0633900  95.8872970  59.8572190 145.6350010  95.1195170  59.8575830
 145.0635440  96.1861730  58.9478800 155.1457270  93.4973190  59.5453430
 155.5222090  92.6245070  59.4327100 155.0476780  93.8331890  58.6543870
 149.2762280  91.8698820  55.0070870 149.3829030  92.7702550  55.3139630
 148.3654640  91.8216790  54.7165520 158.9281390  90.9923630  56.4781770
 159.7491010  90.5020200  56.5207250 158.9615470  91.5821290  57.2313610
 151.1170010  94.8385190  59.3396050 151.6248230  95.3366160  59.9801070
 151.6483250  94.0620390  59.1635410 159.1642870  92.9324010  59.2509310
 158.4598440  93.2208900  59.8312420 159.5255030  93.7424120  58.8908870
 162.2329790  92.3778800  59.6418520 161.2854700  92.4117780  59.7733950
 162.5579780  93.1917750  60.0267880 152.7649330  88.6775980  57.9374510
 153.0724310  88.1222870  57.2210010 151.8350030  88.8120440  57.7547500
 155.1530090  96.7424810  54.6734630 154.2259370  96.6762190  54.9023100
 155.3054910  97.6804940  54.5589870 155.1399170  93.0141810  51.6701790
 154.2002840  93.1755770  51.7554250 155.4582430  93.7327490  51.1237780
 159.1827380  98.3045110  55.1769880 158.5639800  97.9664660  54.5296180
 159.1651830  97.6604870  55.8849070 150.7586730  97.2689550  57.4554360
 150.3543730  96.5566800  56.9600260 150.8449850  96.9242790  58.3442400
 157.3592080  97.5431920  52.1842630 157.7985360  96.7054350  52.0380450
 158.0720500  98.1761320  52.2706770 160.9409220  88.7974730  50.4983670
 160.6281880  88.8901560  51.3982740 161.7021690  89.3755760  50.4481100
 147.4591360  96.1634530  54.9561010 147.3388960  96.8896620  54.3442280
 147.1492250  95.3937440  54.4788920 149.9255020  89.5069600  58.3384680
 149.4823170  90.2879140  58.0069200 150.4840010  89.8299490  59.0455620
 153.0413840  89.1280300  53.2190510 152.4168020  89.1240170  53.9443820
 152.9543960  88.2611260  52.8226480 151.9630920  90.0516930  60.1974280
 152.2603250  90.9579760  60.1166300 152.5116480  89.5635710  59.5833850
 149.7169240  94.6303170  56.0665930 149.4910160  94.4140340  56.9712550
 148.9361770  95.0631630  55.7211900 156.9467000  94.6366540  54.6656580
 156.3475890  95.3602340  54.4820200 157.4946610  94.5743320  53.8833030
 155.5531870  93.2730080  56.6959860 155.9461440  93.5902280  55.8828550
 155.9148720  92.3941960  56.8104380 144.5896040  89.8630880  58.9190060
 144.3009090  90.4333740  59.6315040 145.3341800  89.3835330  59.2821290
 144.7766270  93.8051000  50.1292780 144.6940940  94.7481760  50.2707770
 144.4249330  93.6625910  49.2505130 152.5764400  92.5390030  59.1963130
 152.5800460  92.0979980  58.3467670 153.4715520  92.8607360  59.3034950
 148.4266780  92.4216520  58.1557340 148.0866830  92.8991750  58.9124390
 147.6644100  91.9681640  57.7958440 152.6384550  93.5402110  52.1869890
 152.7597370  93.4988590  53.1355710 152.2533060  94.4026260  52.0316620
 151.6506050  95.8503250  51.5853190 151.0822950  95.4021500  50.9589100
 152.3595050  96.2096030  51.0518340 145.7412860  91.3435500  57.0722010
 145.4559780  90.9791170  57.9100630 145.6791720  90.6115960  56.4585150
 155.4151450  90.2364760  53.7935380 154.6016060  89.7377930  53.7180690
 155.2213400  91.0763010  53.3771730 158.1299840  94.6084410  52.0897540
 159.0179460  94.9201640  51.9148880 158.1004930  93.7356660  51.6978120
 160.4014110  95.9196250  51.5577400 160.3177830  96.3510470  50.7073840
 161.1208300  96.3794600  51.9904220 145.2343520  96.4794450  51.0318710
 146.1038370  96.7619250  51.3154630 144.7433840  97.2930320  50.9167520
 152.3978330  97.8667660  55.1526990 152.8541110  98.6772910  55.3787180
 152.0466540  97.5490800  55.9845480 148.2990110  88.2105310  55.6249510
 148.1704740  88.2023210  56.5734430 147.4752130  88.5488400  55.2740520
 160.1584850  91.4175680  53.6445220 159.5298010  91.5221350  52.9303450
 159.6636770  91.6372460  54.4339100 152.1268880  93.6961630  55.0603100
 151.4185030  94.1647970  55.5016710 152.4113360  93.0383640  55.6948290
 156.1584310  90.4212290  56.4998890 156.0352090  90.4398420  55.5508400
 157.1068870  90.4691230  56.6197290 150.3303900  92.0046710  52.4353810
 151.1794430  92.4416860  52.3694000 149.9635170  92.3166970  53.2625870
 159.2513680  96.5759470  57.3485380 158.3103820  96.5909700  57.5233070
 159.5657750  95.7895430  57.7945680 149.2295320  98.2579070  50.9089340
 149.9958590  98.1460430  51.4714770 149.3070010  97.5617040  50.2566110
 147.9242080  95.6904140  51.5922230 148.0045670  94.7431650  51.7039630
 148.8161830  96.0211020  51.6982890 151.2614350  98.2544200  52.8831980
 151.6830770  98.0884070  53.7263370 151.3865190  97.4444430  52.3887120
 153.7741990  97.2781810  50.1309080 154.2947650  96.5630830  49.7650230
 154.4210390  97.9167680  50.4309590 150.1573250  94.3277430  49.8290140
 149.9562310  93.4644790  50.1903480 149.9865300  94.2410790  48.8911740
 157.6361560  89.1385660  52.3577020 157.9163850  88.2953560  52.7136440
 156.8627290  89.3708770  52.8715770 148.9556050  91.4278050  49.8168020
 149.2581950  91.4345480  48.9087170 149.6950640  91.0775910  50.3135680
 152.1740980  90.3712670  50.8024220 151.8262980  89.6936660  50.2226670
 152.3753750  89.9102180  51.6167610 162.0142280  98.3762390  52.9680930
 162.7761190  98.9459040  53.0740620 162.0296650  97.8089590  53.7389240
 145.5146620  96.9000320  57.1988590 144.8595460  96.6311960  56.5548290
 146.3524570  96.7904800  56.7490570 158.4637060  91.6941610  51.4207080
 158.8821940  91.5072590  50.5803740 158.1573120  90.8420660  51.7310010
 161.9626790  96.6065750  55.1182880 161.5870390  95.8393680  54.6864170
 161.2329910  96.9888450  55.6057810 144.7284700  94.1099250  53.1413920
 143.8248780  94.3729450  52.9665580 145.2125320  94.3810420  52.3613880
 161.2377750  94.8323240  58.4190120 161.7615230  94.3385890  57.7880290
 161.8237170  94.9673600  59.1637690 147.2711910  93.1664790  51.0508300
 147.9803610  92.7448010  50.5655580 146.5551850  93.2340020  50.4191650
 146.9186070  89.2204120  50.0910950 147.6414200  89.7613060  50.4092170
 147.1910590  88.9467540  49.2152490 160.7277720  94.0896590  54.3582530
 161.2236840  93.8567460  55.1431410 160.5293790  93.2508430  53.9420170
 162.1564880  92.7257540  56.8920210 162.0464160  92.5713580  57.8302480
 162.9172470  92.1978480  56.6495620 163.0455150  90.5565460  50.1326350
 163.9704460  90.4246640  49.9244640 163.0230940  90.6358280  51.0862800
 163.1193640  91.3276120  52.7583060 162.3245140  91.2621240  53.2875970
 163.3236920  92.2626760  52.7468410 159.5513570  89.6573000  59.2081890
 159.9921660  89.6018100  58.3603490 159.2821160  90.5731010  59.2792070
 161.4152140  89.2888240  57.2190710 161.3540540  88.3449460  57.0721730
 162.1944170  89.3968330  57.7644170 146.3432910  89.2597380  53.6846520
 147.1012270  89.3726260  53.1110550 145.8810080  90.0966580  53.6389950
 152.8846720  91.3736650  56.6748830 152.0721230  90.9993540  56.3344710
 153.3888360  90.6181730  56.9770020 157.3871700  88.0379100  57.9131900
 157.9901070  88.6099310  58.3880420 156.6464690  88.6018540  57.6905800
 160.5306300  88.4400660  53.1872180 160.7256930  89.3384110  53.4539610
 159.7436170  88.2087740  53.6805130 148.7158060  89.7861430  52.2248490
 149.2450820  88.9991230  52.0956440 149.3486380  90.4652620  52.4584020
 150.9095900  89.5236570  55.2793880 150.2798640  88.8223880  55.4464010
 150.3701040  90.2840700  55.0627040 156.5425070  96.2366600  38.6561580
 156.4619120  95.3221210  38.3853290 156.1289490  96.7333670  37.9501290
 154.6743110  98.0145620  40.5370850 153.8985210  97.5346060  40.8269420
 155.3256040  97.3351270  40.3627010 148.6908940  98.3265430  41.4146610
 147.8593820  98.0714140  41.8143120 149.2989920  98.3976200  42.1504530
 147.1000890  93.2867320  35.1989000 146.2117590  93.6283290  35.0968880
 147.3842080  93.0867640  34.3069830 145.0633900  95.8872970  41.0828700
 145.6350010  95.1195170  41.0832340 145.0635440  96.1861730  40.1735310
 146.3058770  91.2957330  42.8697630 146.1261610  90.3983080  43.1500390
 145.9038850  91.8429200  43.5444580 155.1457270  93.4973190  40.7709940
 155.5222090  92.6245070  40.6583610 155.0476780  93.8331890  39.8800380
 149.2762280  91.8698820  36.2327380 149.3829030  92.7702550  36.5396140
 148.3654640  91.8216790  35.9422030 158.9281390  90.9923630  37.7038280
 159.7491010  90.5020200  37.7463760 158.9615470  91.5821290  38.4570120
 146.9245440  93.7917830  41.4779970 147.6055550  94.0556200  42.0967370
 146.6093490  92.9518700  41.8117980 151.1170010  94.8385190  40.5652560
 151.6248230  95.3366160  41.2057580 151.6483250  94.0620390  40.3891920
 163.2180940  93.0090380  44.2681910 162.5133110  93.3972090  43.7497020
 163.4838860  93.7040670  44.8702840 149.4006110  89.4783750  44.8315980
 149.4024550  89.9956140  44.0261880 148.5710420  89.0013930  44.8085910
 159.1642870  92.9324010  40.4765820 158.4598440  93.2208900  41.0568930
 159.5255030  93.7424120  40.1165380 149.0821440  91.1893710  42.8386430
 149.4238250  92.0335760  42.5440300 148.1437250  91.3377450  42.9551770
 162.2329790  92.3778800  40.8675030 161.2854700  92.4117780  40.9990460
 162.5579780  93.1917750  41.2524390 152.7649330  88.6775980  39.1631020
 153.0724310  88.1222870  38.4466520 151.8350030  88.8120440  38.9804010
 155.1530090  96.7424810  35.8991140 154.2259370  96.6762190  36.1279610
 155.3054910  97.6804940  35.7846380 155.1399170  93.0141810  32.8958300
 154.2002840  93.1755770  32.9810760 155.4582430  93.7327490  32.3494290
 161.6611930  97.6960330  42.8737330 160.8330560  97.7653420  42.3987460
 162.2562410  98.2814640  42.4053160 159.1827380  98.3045110  36.4026390
 158.5639800  97.9664660  35.7552690 159.1651830  97.6604870  37.1105580
 158.6253940  94.4829650  43.8192200 158.2125120  95.3083360  44.0732190
 157.8929890  93.8974690  43.6268560 150.7586730  97.2689550  38.6810870
 150.3543730  96.5566800  38.1856770 150.8449850  96.9242790  39.5698910
 149.4715350  94.0432760  42.4609910 150.0229940  94.1528100  41.6863160
 149.9858860  94.4170360  43.1765140 157.3592080  97.5431920  33.4099140
 157.7985360  96.7054350  33.2636960 158.0720500  98.1761320  33.4963280
 149.1458080  97.5652120  46.0715250 149.0065850  98.4374920  46.4402650
 148.2639440  97.2224930  45.9263190 160.9409220  88.7974730  31.7240180
 160.6281880  88.8901560  32.6239250 161.7021690  89.3755760  31.6737610
 147.4591360  96.1634530  36.1817520 147.3388960  96.8896620  35.5698790
 147.1492250  95.3937440  35.7045430 162.1510510  93.5346230  47.7014320
 161.5354780  94.0425900  47.1729780 161.8306930  92.6344560  47.6440260
 149.9255020  89.5069600  39.5641190 149.4823170  90.2879140  39.2325710
 150.4840010  89.8299490  40.2712130 154.2124830  92.3738120  45.1676510
 153.7504200  92.5821140  45.9796450 153.8102940  91.5597470  44.8647180
 159.2129340  93.5947070  46.2973170 158.3622930  93.2952820  46.6182240
 159.0531130  93.8389080  45.3856990 156.3079050  95.0948820  48.3971960
 156.6332460  94.2612570  48.0574190 157.0959380  95.6177340  48.5450290
 153.0413840  89.1280300  34.4447020 152.4168020  89.1240170  35.1700330
 152.9543960  88.2611260  34.0482990 151.9630920  90.0516930  41.4230790
 152.2603250  90.9579760  41.3422810 152.5116480  89.5635710  40.8090360
 149.7169240  94.6303170  37.2922440 149.4910160  94.4140340  38.1969060
 148.9361770  95.0631630  36.9468410 156.9467000  94.6366540  35.8913090
 156.3475890  95.3602340  35.7076710 157.4946610  94.5743320  35.1089540
 152.1568450  95.5288750  47.9582710 152.0612050  94.5883480  47.8083110
 153.0000430  95.7503820  47.5630780 155.5531870  93.2730080  37.9216370
 155.9461440  93.5902280  37.1085060 155.9148720  92.3941960  38.0360890
 147.2878990  91.9402420  46.1116490 146.8942380  92.7877630  46.3189270
 146.5997390  91.3028790  46.3025130 153.8624040  92.0237390  49.1813230
 153.1722360  91.8309590  49.8159320 154.6056340  92.3072030  49.7137530
 144.5896040  89.8630880  40.1446570 144.3009090  90.4333740  40.8571550
 145.3341800  89.3835330  40.5077800 144.7766270  93.8051000  31.3549290
 144.6940940  94.7481760  31.4964280 144.4249330  93.6625910  30.4761640
 152.5764400  92.5390030  40.4219640 152.5800460  92.0979980  39.5724180
 153.4715520  92.8607360  40.5291460 148.4266780  92.4216520  39.3813850
 148.0866830  92.8991750  40.1380900 147.6644100  91.9681640  39.0214950
 152.6384550  93.5402110  33.4126400 152.7597370  93.4988590  34.3612220
 152.2533060  94.4026260  33.2573130 156.6012920  91.3169510  41.4290090
 156.6185660  91.7678160  42.2731940 156.3528500  90.4175150  41.6423530
 151.6506050  95.8503250  32.8109700 151.0822950  95.4021500  32.1845610
 152.3595050  96.2096030  32.2774850 160.0283670  88.7301690  47.2676470
 160.3529440  87.9991350  47.7934450 160.0640180  88.4115330  46.3657460
 152.8772370  96.5991810  42.1685050 153.2442500  96.1250380  42.9146390
 152.6877430  97.4733380  42.5093390 145.7412860  91.3435500  38.2978520
 145.4559780  90.9791170  39.1357140 145.6791720  90.6115960  37.6841660
 150.6671740  95.6400450  44.4869260 150.3628810  96.5192430  44.7119620
 151.6218200  95.7000240  44.5226700 155.4151450  90.2364760  35.0191890
 154.6016060  89.7377930  34.9437200 155.2213400  91.0763010  34.6028240
 158.1299840  94.6084410  33.3154050 159.0179460  94.9201640  33.1405390
 158.1004930  93.7356660  32.9234630 146.7235470  96.4803190  45.6340620
 146.3650410  97.1457040  46.2213960 146.4290030  95.6486740  46.0053240
 149.9248590  96.9387430  48.5180170 149.6248730  97.0844610  47.6207990
 150.6959830  96.3792720  48.4253560 160.4014110  95.9196250  32.7833910
 160.3177830  96.3510470  31.9330350 161.1208300  96.3794600  33.2160730
 161.4788250  98.3763770  45.8603880 160.7536440  98.9692550  45.6633270
 162.0063710  98.3687310  45.0617250 145.2343520  96.4794450  32.2575220
 146.1038370  96.7619250  32.5411140 144.7433840  97.2930320  32.1424030
 152.3978330  97.8667660  36.3783500 152.8541110  98.6772910  36.6043690
 152.0466540  97.5490800  37.2101990 148.2990110  88.2105310  36.8506020
 148.1704740  88.2023210  37.7990940 147.4752130  88.5488400  36.4997030
 145.2984040  89.9696430  46.3112720 144.5842560  90.1693350  46.9165330
 145.7179080  89.1936000  46.6827520 156.7922820  92.4618740  44.0614170
 157.1603640  91.6413950  44.3893740 155.9321020  92.5220630  44.4769820
 160.1584850  91.4175680  34.8701730 159.5298010  91.5221350  34.1559960
 159.6636770  91.6372460  35.6595610 152.1268880  93.6961630  36.2859610
 151.4185030  94.1647970  36.7273220 152.4113360  93.0383640  36.9204800
 153.7524810  95.1158330  44.2852140 154.2510060  95.5904150  44.9503990
 153.8947760  94.1921850  44.4922170 156.1584310  90.4212290  37.7255400
 156.0352090  90.4398420  36.7764910 157.1068870  90.4691230  37.8453800
 150.3303900  92.0046710  33.6610320 151.1794430  92.4416860  33.5950510
 149.9635170  92.3166970  34.4882380 160.9591670  91.3326290  45.1280530
 160.4565270  92.0731690  45.4674340 161.7748330  91.7210290  44.8117320
 159.2513680  96.5759470  38.5741890 158.3103820  96.5909700  38.7489580
 159.5657750  95.7895430  39.0202190 149.2295320  98.2579070  32.1345850
 149.9958590  98.1460430  32.6971280 149.3070010  97.5617040  31.4822620
 147.9242080  95.6904140  32.8178740 148.0045670  94.7431650  32.9296140
 148.8161830  96.0211020  32.9239400 145.4512880  97.5119060  48.0534910
 145.9551900  96.9326340  48.6251140 144.7120300  97.7959290  48.5911280
 147.4835960  95.6548650  48.9484980 147.5241300  95.3562520  49.8570210
 148.3381460  96.0556260  48.7892500 151.2614350  98.2544200  34.1088490
 151.6830770  98.0884070  34.9519880 151.3865190  97.4444430  33.6143630
 149.4241770  94.2340750  46.9159470 148.8938230  93.7431700  46.2882810
 150.0929840  94.6624950  46.3817400 153.7741990  97.2781810  31.3565590
 154.2947650  96.5630830  30.9906740 154.4210390  97.9167680  31.6566100
 158.3219830  98.7010210  46.6800660 158.7360850  98.8555290  47.5291080
 157.3870830  98.8265430  46.8426440 158.7942000  96.0406370  48.6839810
 159.3762770  95.2858690  48.5960290 158.9703770  96.5713810  47.9071290
 149.9114070  91.2003120  46.9956760 149.8170940  90.5823870  46.2707630
 149.3311460  91.9269410  46.7686670 152.6775510  89.7576360  44.0284150
 152.2292810  89.7800620  43.1829700 152.0440710  89.3595380  44.6254450
 155.4198960  96.3846870  46.0334430 155.5395170  95.7888010  46.7729270
 156.2792960  96.4216560  45.6135730 157.7586860  96.9384060  44.6096940
 157.2322080  97.4626680  44.0062080 158.1018200  97.5711450  45.2406670
 150.1573250  94.3277430  31.0546650 149.9562310  93.4644790  31.4159990
 149.9865300  94.2410790  30.1168250 152.1867730  92.9268220  47.2910250
 152.7767420  92.6184070  47.9788070 151.3687970  92.4547970  47.4470150
 157.0061160  92.5434030  47.5243270 156.3176680  91.8815570  47.4593260
 157.7267180  92.0972300  47.9691730 157.6361560  89.1385660  33.5833530
 157.9163850  88.2953560  33.9392950 156.8627290  89.3708770  34.0972280
 148.9556050  91.4278050  31.0424530 149.2581950  91.4345480  30.1343680
 149.6950640  91.0775910  31.5392190 152.1740980  90.3712670  32.0280730
 151.8262980  89.6936660  31.4483180 152.3753750  89.9102180  32.8424120
 162.0142280  98.3762390  34.1937440 162.7761190  98.9459040  34.2997130
 162.0296650  97.8089590  34.9645750 145.5146620  96.9000320  38.4245100
 144.8595460  96.6311960  37.7804800 146.3524570  96.7904800  37.9747080
 158.4637060  91.6941610  32.6463590 158.8821940  91.5072590  31.8060250
 158.1573120  90.8420660  32.9566520 161.9626790  96.6065750  36.3439390
 161.5870390  95.8393680  35.9120680 161.2329910  96.9888450  36.8314320
 146.5522550  97.2852890  42.9648440 146.9195590  97.1980290  43.8444460
 145.9833370  96.5219440  42.8655300 161.3526410  95.7537270  45.9778910
 161.1212500  95.5250020  45.0776860 161.6130960  96.6736820  45.9323800
 146.1038550  94.1961980  46.8706860 145.2094600  94.1628740  47.2100570
 146.6436100  94.3948770  47.6358110 159.7914480  90.9793700  48.7558610
 160.6684660  90.9877100  49.1392610 159.8035320  90.2424540  48.1450960
 144.7284700  94.1099250  34.3670430 143.8248780  94.3729450  34.1922090
 145.2125320  94.3810420  33.5870390 161.2377750  94.8323240  39.6446630
 161.7615230  94.3385890  39.0136800 161.8237170  94.9673600  40.3894200
 161.4167470  94.9163110  43.1666180 160.4670180  94.8826650  43.2811170
 161.5980480  95.8263220  42.9315950 147.2711910  93.1664790  32.2764810
 147.9803610  92.7448010  31.7912090 146.5551850  93.2340020  31.6448160
 146.9186070  89.2204120  31.3167460 147.6414200  89.7613060  31.6348680
 147.1910590  88.9467540  30.4409000 160.7277720  94.0896590  35.5839040
 161.2236840  93.8567460  36.3687920 160.5293790  93.2508430  35.1676680
 146.6078260  88.4710310  41.2190080 147.2554450  87.9207690  40.7785240
 147.0280100  88.7253460  42.0405890 162.1564880  92.7257540  38.1176720
 162.0464160  92.5713580  39.0558990 162.9172470  92.1978480  37.8752130
 160.5030600  88.6651670  44.5759720 161.1402820  89.2785810  44.9418910
 160.6505490  88.7012330  43.6308950 163.0455150  90.5565460  31.3582860
 163.9704460  90.4246640  31.1501150 163.0230940  90.6358280  32.3119310
 163.1193640  91.3276120  33.9839570 162.3245140  91.2621240  34.5132480
 163.3236920  92.2626760  33.9724920 146.3610260  88.6265980  43.9615400
 146.0125080  89.0829800  44.7273580 146.0297960  87.7323110  44.0437830
 153.8735080  89.8177860  47.4834820 153.8123970  90.4099690  48.2330230
 154.8135460  89.7103820  47.3385080 156.5109640  89.4747920  47.1227110
 157.1250050  89.7927210  46.4608190 157.0559200  88.9896510  47.7422970
 147.0330900  88.1542180  47.2366170 147.5813890  87.9730230  46.4732280
 147.0986210  87.3636290  47.7722480 157.2517680  88.0380060  43.4496400
 156.3777520  88.3715170  43.2469330 157.1428430  87.5653240  44.2748270
 158.1589660  90.2450930  44.8338120 157.8303020  89.4302690  44.4539850
 159.1071960  90.2020740  44.7103810 154.9992500  88.9549900  42.3889310
 154.2164290  89.4295400  42.6686070 154.7055430  88.0504730  42.2802490
 159.5513570  89.6573000  40.4338400 159.9921660  89.6018100  39.5860000
 159.2821160  90.5731010  40.5048580 161.4152140  89.2888240  38.4447220
 161.3540540  88.3449460  38.2978240 162.1944170  89.3968330  38.9900680
 146.3432910  89.2597380  34.9103030 147.1012270  89.3726260  34.3367060
 145.8810080  90.0966580  34.8646460 152.8846720  91.3736650  37.9005340
 152.0721230  90.9993540  37.5601220 153.3888360  90.6181730  38.2026530
 157.3871700  88.0379100  39.1388410 157.9901070  88.6099310  39.6136930
 156.6464690  88.6018540  38.9162310 160.5306300  88.4400660  34.4128690
 160.7256930  89.3384110  34.6796120 159.7436170  88.2087740  34.9061640
 148.7158060  89.7861430  33.4505000 149.2450820  88.9991230  33.3212950
 149.3486380  90.4652620  33.6840530 150.9095900  89.5236570  36.5050390
 150.2798640  88.8223880  36.6720520 150.3701040  90.2840700  36.2883550
 151.0351460  88.8020550  48.9402880 150.7535730  89.3054150  48.1763700
 151.4171160  88.0042300  48.5745010 157.6366920  88.2174130  49.5183350
 157.5232370  88.5368740  50.4134870 158.4536660  88.6186640  49.2220630
 156.5425070  96.2366600  19.8818090 156.4619120  95.3221210  19.6109800
 156.1289490  96.7333670  19.1757800 154.6743110  98.0145620  21.7627360
 153.8985210  97.5346060  22.0525930 155.3256040  97.3351270  21.5883520
 148.6908940  98.3265430  22.6403120 147.8593820  98.0714140  23.0399630
 149.2989920  98.3976200  23.3761040 147.1000890  93.2867320  16.4245510
 146.2117590  93.6283290  16.3225390 147.3842080  93.0867640  15.5326340
 145.0633900  95.8872970  22.3085210 145.6350010  95.1195170  22.3088850
 145.0635440  96.1861730  21.3991820 146.3058770  91.2957330  24.0954140
 146.1261610  90.3983080  24.3756900 145.9038850  91.8429200  24.7701090
 155.1457270  93.4973190  21.9966450 155.5222090  92.6245070  21.8840120
 155.0476780  93.8331890  21.1056890 149.2762280  91.8698820  17.4583890
 149.3829030  92.7702550  17.7652650 148.3654640  91.8216790  17.1678540
 158.9281390  90.9923630  18.9294790 159.7491010  90.5020200  18.9720270
 158.9615470  91.5821290  19.6826630 146.9245440  93.7917830  22.7036480
 147.6055550  94.0556200  23.3223880 146.6093490  92.9518700  23.0374490
 151.1170010  94.8385190  21.7909070 151.6248230  95.3366160  22.4314090
 151.6483250  94.0620390  21.6148430 163.2180940  93.0090380  25.4938420
 162.5133110  93.3972090  24.9753530 163.4838860  93.7040670  26.0959350
 149.4006110  89.4783750  26.0572490 149.4024550  89.9956140  25.2518390
 148.5710420  89.0013930  26.0342420 159.1642870  92.9324010  21.7022330
 158.4598440  93.2208900  22.2825440 159.5255030  93.7424120  21.3421890
 149.0821440  91.1893710  24.0642940 149.4238250  92.0335760  23.7696810
 148.1437250  91.3377450  24.1808280 162.2329790  92.3778800  22.0931540
 161.2854700  92.4117780  22.2246970 162.5579780  93.1917750  22.4780900
 152.7649330  88.6775980  20.3887530 153.0724310  88.1222870  19.6723030
 151.8350030  88.8120440  20.2060520 155.1530090  96.7424810  17.1247650
 154.2259370  96.6762190  17.3536120 155.3054910  97.6804940  17.0102890
 155.1399170  93.0141810  14.1214810 154.2002840  93.1755770  14.2067270
 155.4582430  93.7327490  13.5750800 161.6611930  97.6960330  24.0993840
 160.8330560  97.7653420  23.6243970 162.2562410  98.2814640  23.6309670
 159.1827380  98.3045110  17.6282900 158.5639800  97.9664660  16.9809200
 159.1651830  97.6604870  18.3362090 158.6253940  94.4829650  25.0448710
 158.2125120  95.3083360  25.2988700 157.8929890  93.8974690  24.8525070
 150.7586730  97.2689550  19.9067380 150.3543730  96.5566800  19.4113280
 150.8449850  96.9242790  20.7955420 149.4715350  94.0432760  23.6866420
 150.0229940  94.1528100  22.9119670 149.9858860  94.4170360  24.4021650
 157.3592080  97.5431920  14.6355650 157.7985360  96.7054350  14.4893470
 158.0720500  98.1761320  14.7219790 149.1458080  97.5652120  27.2971760
 149.0065850  98.4374920  27.6659160 148.2639440  97.2224930  27.1519700
 160.9409220  88.7974730  12.9496690 160.6281880  88.8901560  13.8495760
 161.7021690  89.3755760  12.8994120 147.4591360  96.1634530  17.4074030
 147.3388960  96.8896620  16.7955300 147.1492250  95.3937440  16.9301940
 162.1510510  93.5346230  28.9270830 161.5354780  94.0425900  28.3986290
 161.8306930  92.6344560  28.8696770 149.9255020  89.5069600  20.7897700
 149.4823170  90.2879140  20.4582220 150.4840010  89.8299490  21.4968640
 154.2124830  92.3738120  26.3933020 153.7504200  92.5821140  27.2052960
 153.8102940  91.5597470  26.0903690 159.2129340  93.5947070  27.5229680
 158.3622930  93.2952820  27.8438750 159.0531130  93.8389080  26.6113500
 156.3079050  95.0948820  29.6228470 156.6332460  94.2612570  29.2830700
 157.0959380  95.6177340  29.7706800 153.0413840  89.1280300  15.6703530
 152.4168020  89.1240170  16.3956840 152.9543960  88.2611260  15.2739500
 151.9630920  90.0516930  22.6487300 152.2603250  90.9579760  22.5679320
 152.5116480  89.5635710  22.0346870 149.7169240  94.6303170  18.5178950
 149.4910160  94.4140340  19.4225570 148.9361770  95.0631630  18.1724920
 156.9467000  94.6366540  17.1169600 156.3475890  95.3602340  16.9333220
 157.4946610  94.5743320  16.3346050 152.1568450  95.5288750  29.1839220
 152.0612050  94.5883480  29.0339620 153.0000430  95.7503820  28.7887290
 155.5531870  93.2730080  19.1472880 155.9461440  93.5902280  18.3341570
 155.9148720  92.3941960  19.2617400 147.2878990  91.9402420  27.3373000
 146.8942380  92.7877630  27.5445780 146.5997390  91.3028790  27.5281640
 153.8624040  92.0237390  30.4069740 153.1722360  91.8309590  31.0415830
 154.6056340  92.3072030  30.9394040 144.5896040  89.8630880  21.3703080
 144.3009090  90.4333740  22.0828060 145.3341800  89.3835330  21.7334310
 144.7766270  93.8051000  12.5805800 144.6940940  94.7481760  12.7220790
 144.4249330  93.6625910  11.7018150 156.1387010  95.8635830  23.2423660
 155.4068130  96.3722640  23.5913760 155.7411350  95.0465810  22.9412440
 152.5764400  92.5390030  21.6476150 152.5800460  92.0979980  20.7980690
 153.4715520  92.8607360  21.7547970 148.4266780  92.4216520  20.6070360
 148.0866830  92.8991750  21.3637410 147.6644100  91.9681640  20.2471460
 152.6384550  93.5402110  14.6382910 152.7597370  93.4988590  15.5868730
 152.2533060  94.4026260  14.4829640 156.6012920  91.3169510  22.6546600
 156.6185660  91.7678160  23.4988450 156.3528500  90.4175150  22.8680040
 151.6506050  95.8503250  14.0366210 151.0822950  95.4021500  13.4102120
 152.3595050  96.2096030  13.5031360 160.0283670  88.7301690  28.4932980
 160.3529440  87.9991350  29.0190960 160.0640180  88.4115330  27.5913970
 152.8772370  96.5991810  23.3941560 153.2442500  96.1250380  24.1402900
 152.6877430  97.4733380  23.7349900 145.7412860  91.3435500  19.5235030
 145.4559780  90.9791170  20.3613650 145.6791720  90.6115960  18.9098170
 150.6671740  95.6400450  25.7125770 150.3628810  96.5192430  25.9376130
 151.6218200  95.7000240  25.7483210 155.4151450  90.2364760  16.2448400
 154.6016060  89.7377930  16.1693710 155.2213400  91.0763010  15.8284750
 158.1299840  94.6084410  14.5410560 159.0179460  94.9201640  14.3661900
 158.1004930  93.7356660  14.1491140 146.7235470  96.4803190  26.8597130
 146.3650410  97.1457040  27.4470470 146.4290030  95.6486740  27.2309750
 149.9248590  96.9387430  29.7436680 149.6248730  97.0844610  28.8464500
 150.6959830  96.3792720  29.6510070 160.4014110  95.9196250  14.0090420
 160.3177830  96.3510470  13.1586860 161.1208300  96.3794600  14.4417240
 161.4788250  98.3763770  27.0860390 160.7536440  98.9692550  26.8889780
 162.0063710  98.3687310  26.2873760 145.2343520  96.4794450  13.4831730
 146.1038370  96.7619250  13.7667650 144.7433840  97.2930320  13.3680540
 152.3978330  97.8667660  17.6040010 152.8541110  98.6772910  17.8300200
 152.0466540  97.5490800  18.4358500 148.2990110  88.2105310  18.0762530
 148.1704740  88.2023210  19.0247450 147.4752130  88.5488400  17.7253540
 145.2984040  89.9696430  27.5369230 144.5842560  90.1693350  28.1421840
 145.7179080  89.1936000  27.9084030 156.7922820  92.4618740  25.2870680
 157.1603640  91.6413950  25.6150250 155.9321020  92.5220630  25.7026330
 160.1584850  91.4175680  16.0958240 159.5298010  91.5221350  15.3816470
 159.6636770  91.6372460  16.8852120 152.1268880  93.6961630  17.5116120
 151.4185030  94.1647970  17.9529730 152.4113360  93.0383640  18.1461310
 153.7524810  95.1158330  25.5108650 154.2510060  95.5904150  26.1760500
 153.8947760  94.1921850  25.7178680 156.1584310  90.4212290  18.9511910
 156.0352090  90.4398420  18.0021420 157.1068870  90.4691230  19.0710310
 150.3303900  92.0046710  14.8866830 151.1794430  92.4416860  14.8207020
 149.9635170  92.3166970  15.7138890 160.9591670  91.3326290  26.3537040
 160.4565270  92.0731690  26.6930850 161.7748330  91.7210290  26.0373830
 159.2513680  96.5759470  19.7998400 158.3103820  96.5909700  19.9746090
 159.5657750  95.7895430  20.2458700 149.2295320  98.2579070  13.3602360
 149.9958590  98.1460430  13.9227790 149.3070010  97.5617040  12.7079130
 147.9242080  95.6904140  14.0435250 148.0045670  94.7431650  14.1552650
 148.8161830  96.0211020  14.1495910 145.4512880  97.5119060  29.2791420
 145.9551900  96.9326340  29.8507650 144.7120300  97.7959290  29.8167790
 147.4835960  95.6548650  30.1741490 147.5241300  95.3562520  31.0826720
 148.3381460  96.0556260  30.0149010 151.2614350  98.2544200  15.3345000
 151.6830770  98.0884070  16.1776390 151.3865190  97.4444430  14.8400140
 149.4241770  94.2340750  28.1415980 148.8938230  93.7431700  27.5139320
 150.0929840  94.6624950  27.6073910 153.7741990  97.2781810  12.5822100
 154.2947650  96.5630830  12.2163250 154.4210390  97.9167680  12.8822610
 158.3219830  98.7010210  27.9057170 158.7360850  98.8555290  28.7547590
 157.3870830  98.8265430  28.0682950 158.7942000  96.0406370  29.9096320
 159.3762770  95.2858690  29.8216800 158.9703770  96.5713810  29.1327800
 149.9114070  91.2003120  28.2213270 149.8170940  90.5823870  27.4964140
 149.3311460  91.9269410  27.9943180 152.6775510  89.7576360  25.2540660
 152.2292810  89.7800620  24.4086210 152.0440710  89.3595380  25.8510960
 155.4198960  96.3846870  27.2590940 155.5395170  95.7888010  27.9985780
 156.2792960  96.4216560  26.8392240 157.7586860  96.9384060  25.8353450
 157.2322080  97.4626680  25.2318590 158.1018200  97.5711450  26.4663180
 150.1573250  94.3277430  12.2803160 149.9562310  93.4644790  12.6416500
 149.9865300  94.2410790  11.3424760 152.1867730  92.9268220  28.5166760
 152.7767420  92.6184070  29.2044580 151.3687970  92.4547970  28.6726660
 157.0061160  92.5434030  28.7499780 156.3176680  91.8815570  28.6849770
 157.7267180  92.0972300  29.1948240 157.6361560  89.1385660  14.8090040
 157.9163850  88.2953560  15.1649460 156.8627290  89.3708770  15.3228790
 148.9556050  91.4278050  12.2681040 149.2581950  91.4345480  11.3600190
 149.6950640  91.0775910  12.7648700 152.1740980  90.3712670  13.2537240
 151.8262980  89.6936660  12.6739690 152.3753750  89.9102180  14.0680630
 162.0142280  98.3762390  15.4193950 162.7761190  98.9459040  15.5253640
 162.0296650  97.8089590  16.1902260 145.5146620  96.9000320  19.6501610
 144.8595460  96.6311960  19.0061310 146.3524570  96.7904800  19.2003590
 158.4637060  91.6941610  13.8720100 158.8821940  91.5072590  13.0316760
 158.1573120  90.8420660  14.1823030 161.9626790  96.6065750  17.5695900
 161.5870390  95.8393680  17.1377190 161.2329910  96.9888450  18.0570830
 146.5522550  97.2852890  24.1904950 146.9195590  97.1980290  25.0700970
 145.9833370  96.5219440  24.0911810 161.3526410  95.7537270  27.2035420
 161.1212500  95.5250020  26.3033370 161.6130960  96.6736820  27.1580310
 146.1038550  94.1961980  28.0963370 145.2094600  94.1628740  28.4357080
 146.6436100  94.3948770  28.8614620 159.7914480  90.9793700  29.9815120
 160.6684660  90.9877100  30.3649120 159.8035320  90.2424540  29.3707470
 144.7284700  94.1099250  15.5926940 143.8248780  94.3729450  15.4178600
 145.2125320  94.3810420  14.8126900 161.2377750  94.8323240  20.8703140
 161.7615230  94.3385890  20.2393310 161.8237170  94.9673600  21.6150710
 161.4167470  94.9163110  24.3922690 160.4670180  94.8826650  24.5067680
 161.5980480  95.8263220  24.1572460 147.2711910  93.1664790  13.5021320
 147.9803610  92.7448010  13.0168600 146.5551850  93.2340020  12.8704670
 146.9186070  89.2204120  12.5423970 147.6414200  89.7613060  12.8605190
 147.1910590  88.9467540  11.6665510 160.7277720  94.0896590  16.8095550
 161.2236840  93.8567460  17.5944430 160.5293790  93.2508430  16.3933190
 146.6078260  88.4710310  22.4446590 147.2554450  87.9207690  22.0041750
 147.0280100  88.7253460  23.2662400 162.1564880  92.7257540  19.3433230
 162.0464160  92.5713580  20.2815500 162.9172470  92.1978480  19.1008640
 160.5030600  88.6651670  25.8016230 161.1402820  89.2785810  26.1675420
 160.6505490  88.7012330  24.8565460 163.0455150  90.5565460  12.5839370
 163.9704460  90.4246640  12.3757660 163.0230940  90.6358280  13.5375820
 163.1193640  91.3276120  15.2096080 162.3245140  91.2621240  15.7388990
 163.3236920  92.2626760  15.1981430 146.3610260  88.6265980  25.1871910
 146.0125080  89.0829800  25.9530090 146.0297960  87.7323110  25.2694340
 153.8735080  89.8177860  28.7091330 153.8123970  90.4099690  29.4586740
 154.8135460  89.7103820  28.5641590 156.5109640  89.4747920  28.3483620
 157.1250050  89.7927210  27.6864700 157.0559200  88.9896510  28.9679480
 147.0330900  88.1542180  28.4622680 147.5813890  87.9730230  27.6988790
 147.0986210  87.3636290  28.9978990 157.2517680  88.0380060  24.6752910
 156.3777520  88.3715170  24.4725840 157.1428430  87.5653240  25.5004780
 158.1589660  90.2450930  26.0594630 157.8303020  89.4302690  25.6796360
 159.1071960  90.2020740  25.9360320 154.9992500  88.9549900  23.6145820
 154.2164290  89.4295400  23.8942580 154.7055430  88.0504730  23.5059000
 159.5513570  89.6573000  21.6594910 159.9921660  89.6018100  20.8116510
 159.2821160  90.5731010  21.7305090 161.4152140  89.2888240  19.6703730
 161.3540540  88.3449460  19.5234750 162.1944170  89.3968330  20.2157190
 146.3432910  89.2597380  16.1359540 147.1012270  89.3726260  15.5623570
 145.8810080  90.0966580  16.0902970 152.8846720  91.3736650  19.1261850
 152.0721230  90.9993540  18.7857730 153.3888360  90.6181730  19.4283040
 157.3871700  88.0379100  20.3644920 157.9901070  88.6099310  20.8393440
 156.6464690  88.6018540  20.1418820 160.5306300  88.4400660  15.6385200
 160.7256930  89.3384110  15.9052630 159.7436170  88.2087740  16.1318150
 148.7158060  89.7861430  14.6761510 149.2450820  88.9991230  14.5469460
 149.3486380  90.4652620  14.9097040 150.9095900  89.5236570  17.7306900
 150.2798640  88.8223880  17.8977030 150.3701040  90.2840700  17.5140060
 151.0351460  88.8020550  30.1659390 150.7535730  89.3054150  29.4020210
 151.4171160  88.0042300  29.8001520 157.6366920  88.2174130  30.7439860
 157.5232370  88.5368740  31.6391380 158.4536660  88.6186640  30.4477140
 154.6743110  98.0145620   2.9883870 153.8985210  97.5346060   3.2782440
 155.3256040  97.3351270   2.8140030 148.6908940  98.3265430   3.8659630
 147.8593820  98.0714140   4.2656140 149.2989920  98.3976200   4.6017550
 145.0633900  95.8872970   3.5341720 145.6350010  95.1195170   3.5345360
 145.0635440  96.1861730   2.6248330 146.3058770  91.2957330   5.3210650
 146.1261610  90.3983080   5.6013410 145.9038850  91.8429200   5.9957600
 155.1457270  93.4973190   3.2222960 155.5222090  92.6245070   3.1096630
 155.0476780  93.8331890   2.3313400 146.9245440  93.7917830   3.9292990
 147.6055550  94.0556200   4.5480390 146.6093490  92.9518700   4.2631000
 151.1170010  94.8385190   3.0165580 151.6248230  95.3366160   3.6570600
 151.6483250  94.0620390   2.8404940 163.2180940  93.0090380   6.7194930
 162.5133110  93.3972090   6.2010040 163.4838860  93.7040670   7.3215860
 149.4006110  89.4783750   7.2829000 149.4024550  89.9956140   6.4774900
 148.5710420  89.0013930   7.2598930 159.1642870  92.9324010   2.9278840
 158.4598440  93.2208900   3.5081950 159.5255030  93.7424120   2.5678400
 149.0821440  91.1893710   5.2899450 149.4238250  92.0335760   4.9953320
 148.1437250  91.3377450   5.4064790 162.2329790  92.3778800   3.3188050
 161.2854700  92.4117780   3.4503480 162.5579780  93.1917750   3.7037410
 161.6611930  97.6960330   5.3250350 160.8330560  97.7653420   4.8500480
 162.2562410  98.2814640   4.8566180 158.6253940  94.4829650   6.2705220
 158.2125120  95.3083360   6.5245210 157.8929890  93.8974690   6.0781580
 149.4715350  94.0432760   4.9122930 150.0229940  94.1528100   4.1376180
 149.9858860  94.4170360   5.6278160 149.1458080  97.5652120   8.5228270
 149.0065850  98.4374920   8.8915670 148.2639440  97.2224930   8.3776210
 162.1510510  93.5346230  10.1527340 161.5354780  94.0425900   9.6242800
 161.8306930  92.6344560  10.0953280 149.9255020  89.5069600   2.0154210
 149.4823170  90.2879140   1.6838730 150.4840010  89.8299490   2.7225150
 154.2124830  92.3738120   7.6189530 153.7504200  92.5821140   8.4309470
 153.8102940  91.5597470   7.3160200 159.2129340  93.5947070   8.7486190
 158.3622930  93.2952820   9.0695260 159.0531130  93.8389080   7.8370010
 156.3079050  95.0948820  10.8484980 156.6332460  94.2612570  10.5087210
 157.0959380  95.6177340  10.9963310 151.9630920  90.0516930   3.8743810
 152.2603250  90.9579760   3.7935830 152.5116480  89.5635710   3.2603380
 152.1568450  95.5288750  10.4095730 152.0612050  94.5883480  10.2596130
 153.0000430  95.7503820  10.0143800 147.2878990  91.9402420   8.5629510
 146.8942380  92.7877630   8.7702290 146.5997390  91.3028790   8.7538150
 153.8624040  92.0237390  11.6326250 153.1722360  91.8309590  12.2672340
 154.6056340  92.3072030  12.1650550 144.5896040  89.8630880   2.5959590
 144.3009090  90.4333740   3.3084570 145.3341800  89.3835330   2.9590820
 156.1387010  95.8635830   4.4680170 155.4068130  96.3722640   4.8170270
 155.7411350  95.0465810   4.1668950 152.5764400  92.5390030   2.8732660
 152.5800460  92.0979980   2.0237200 153.4715520  92.8607360   2.9804480
 148.4266780  92.4216520   1.8326870 148.0866830  92.8991750   2.5893920
 147.6644100  91.9681640   1.4727970 156.6012920  91.3169510   3.8803110
 156.6185660  91.7678160   4.7244960 156.3528500  90.4175150   4.0936550
 160.0283670  88.7301690   9.7189490 160.3529440  87.9991350  10.2447470
 160.0640180  88.4115330   8.8170480 152.8772370  96.5991810   4.6198070
 153.2442500  96.1250380   5.3659410 152.6877430  97.4733380   4.9606410
 150.6671740  95.6400450   6.9382280 150.3628810  96.5192430   7.1632640
 151.6218200  95.7000240   6.9739720 146.7235470  96.4803190   8.0853640
 146.3650410  97.1457040   8.6726980 146.4290030  95.6486740   8.4566260
 149.9248590  96.9387430  10.9693190 149.6248730  97.0844610  10.0721010
 150.6959830  96.3792720  10.8766580 161.4788250  98.3763770   8.3116900
 160.7536440  98.9692550   8.1146290 162.0063710  98.3687310   7.5130270
 145.2984040  89.9696430   8.7625740 144.5842560  90.1693350   9.3678350
 145.7179080  89.1936000   9.1340540 156.7922820  92.4618740   6.5127190
 157.1603640  91.6413950   6.8406760 155.9321020  92.5220630   6.9282840
 153.7524810  95.1158330   6.7365160 154.2510060  95.5904150   7.4017010
 153.8947760  94.1921850   6.9435190 160.9591670  91.3326290   7.5793550
 160.4565270  92.0731690   7.9187360 161.7748330  91.7210290   7.2630340
 145.4512880  97.5119060  10.5047930 145.9551900  96.9326340  11.0764160
 144.7120300  97.7959290  11.0424300 147.4835960  95.6548650  11.3998000
 147.5241300  95.3562520  12.3083230 148.3381460  96.0556260  11.2405520
 149.4241770  94.2340750   9.3672490 148.8938230  93.7431700   8.7395830
 150.0929840  94.6624950   8.8330420 158.3219830  98.7010210   9.1313680
 158.7360850  98.8555290   9.9804100 157.3870830  98.8265430   9.2939460
 158.7942000  96.0406370  11.1352830 159.3762770  95.2858690  11.0473310
 158.9703770  96.5713810  10.3584310 149.9114070  91.2003120   9.4469780
 149.8170940  90.5823870   8.7220650 149.3311460  91.9269410   9.2199690
 152.6775510  89.7576360   6.4797170 152.2292810  89.7800620   5.6342720
 152.0440710  89.3595380   7.0767470 155.4198960  96.3846870   8.4847450
 155.5395170  95.7888010   9.2242290 156.2792960  96.4216560   8.0648750
 157.7586860  96.9384060   7.0609960 157.2322080  97.4626680   6.4575100
 158.1018200  97.5711450   7.6919690 152.1867730  92.9268220   9.7423270
 152.7767420  92.6184070  10.4301090 151.3687970  92.4547970   9.8983170
 157.0061160  92.5434030   9.9756290 156.3176680  91.8815570   9.9106280
 157.7267180  92.0972300  10.4204750 146.5522550  97.2852890   5.4161460
 146.9195590  97.1980290   6.2957480 145.9833370  96.5219440   5.3168320
 161.3526410  95.7537270   8.4291930 161.1212500  95.5250020   7.5289880
 161.6130960  96.6736820   8.3836820 146.1038550  94.1961980   9.3219880
 145.2094600  94.1628740   9.6613590 146.6436100  94.3948770  10.0871130
 159.7914480  90.9793700  11.2071630 160.6684660  90.9877100  11.5905630
 159.8035320  90.2424540  10.5963980 161.2377750  94.8323240   2.0959650
 161.7615230  94.3385890   1.4649820 161.8237170  94.9673600   2.8407220
 161.4167470  94.9163110   5.6179200 160.4670180  94.8826650   5.7324190
 161.5980480  95.8263220   5.3828970 146.6078260  88.4710310   3.6703100
 147.2554450  87.9207690   3.2298260 147.0280100  88.7253460   4.4918910
 160.5030600  88.6651670   7.0272740 161.1402820  89.2785810   7.3931930
 160.6505490  88.7012330   6.0821970 146.3610260  88.6265980   6.4128420
 146.0125080  89.0829800   7.1786600 146.0297960  87.7323110   6.4950850
 153.8735080  89.8177860   9.9347840 153.8123970  90.4099690  10.6843250
 154.8135460  89.7103820   9.7898100 156.5109640  89.4747920   9.5740130
 157.1250050  89.7927210   8.9121210 157.0559200  88.9896510  10.1935990
 147.0330900  88.1542180   9.6879190 147.5813890  87.9730230   8.9245300
 147.0986210  87.3636290  10.2235500 157.2517680  88.0380060   5.9009420
 156.3777520  88.3715170   5.6982350 157.1428430  87.5653240   6.7261290
 158.1589660  90.2450930   7.2851140 157.8303020  89.4302690   6.9052870
 159.1071960  90.2020740   7.1616830 154.9992500  88.9549900   4.8402330
 154.2164290  89.4295400   5.1199090 154.7055430  88.0504730   4.7315510
 159.5513570  89.6573000   2.8851420 159.9921660  89.6018100   2.0373020
 159.2821160  90.5731010   2.9561600 151.0351460  88.8020550  11.3915900
 150.7535730  89.3054150  10.6276720 151.4171160  88.0042300  11.0258030
 157.6366920  88.2174130  11.9696370 157.5232370  88.5368740  12.8647890
 158.4536660  88.6186640  11.6733650 156.5425070  77.4623110  57.4305070
 156.4619120  76.5477720  57.1596780 156.1289490  77.9590180  56.7244780
 154.6743110  79.2402130  59.3114340 153.8985210  78.7602570  59.6012910
 155.3256040  78.5607780  59.1370500 158.6950540  83.6462320  58.0913470
 158.2332070  82.8749560  58.4200640 159.5076090  83.6728390  58.5965920
 147.1000890  74.5123830  53.9732490 146.2117590  74.8539800  53.8712370
 147.3842080  74.3124150  53.0813320 145.0633900  77.1129480  59.8572190
 145.6350010  76.3451680  59.8575830 145.0635440  77.4118240  58.9478800
 154.9213850  85.9320330  57.7117460 154.3025290  86.3877830  57.1411900
 155.7765630  86.0871790  57.3107160 154.1152100  81.9159320  59.3184500
 154.0460380  80.9749260  59.1573630 154.8771960  82.0060730  59.8907070
 155.1457270  74.7229700  59.5453430 155.5222090  73.8501580  59.4327100
 155.0476780  75.0588400  58.6543870 149.2762280  73.0955330  55.0070870
 149.3829030  73.9959060  55.3139630 148.3654640  73.0473300  54.7165520
 158.9281390  72.2180140  56.4781770 159.7491010  71.7276710  56.5207250
 158.9615470  72.8077800  57.2313610 151.1170010  76.0641700  59.3396050
 151.6248230  76.5622670  59.9801070 151.6483250  75.2876900  59.1635410
 155.7877200  80.8159570  55.1049370 155.1694470  81.2809020  54.5412090
 156.3000450  81.5087050  55.5218880 159.1642870  74.1580520  59.2509310
 158.4598440  74.4465410  59.8312420 159.5255030  74.9680630  58.8908870
 145.1560400  81.5016100  52.4789000 144.7788380  81.9903200  51.7473900
 145.4133470  82.1741380  53.1095530 162.2329790  73.6035310  59.6418520
 161.2854700  73.6374290  59.7733950 162.5579780  74.4174260  60.0267880
 152.7649330  69.9032490  57.9374510 153.0724310  69.3479380  57.2210010
 151.8350030  70.0376950  57.7547500 158.3164390  85.6199780  60.2281970
 158.3291550  85.2162070  59.3604230 157.7639610  86.3947070  60.1243400
 159.6109810  82.3416000  55.3172140 159.5006140  81.3990330  55.4421560
 159.6078060  82.7031640  56.2034900 155.1530090  77.9681320  54.6734630
 154.2259370  77.9018700  54.9023100 155.3054910  78.9061450  54.5589870
 155.1399170  74.2398320  51.6701790 154.2002840  74.4012280  51.7554250
 155.4582430  74.9584000  51.1237780 159.1827380  79.5301620  55.1769880
 158.5639800  79.1921170  54.5296180 159.1651830  78.8861380  55.8849070
 150.7586730  78.4946060  57.4554360 150.3543730  77.7823310  56.9600260
 150.8449850  78.1499300  58.3442400 151.2268430  82.1813620  59.6193570
 150.9296720  81.5759090  58.9401350 152.1768250  82.2190930  59.5082930
 157.3592080  78.7688430  52.1842630 157.7985360  77.9310860  52.0380450
 158.0720500  79.4017830  52.2706770 155.4687460  83.7084500  56.1523870
 155.9083370  84.4508830  55.7379260 155.4074350  83.9511070  57.0762830
 160.9409220  70.0231240  50.4983670 160.6281880  70.1158070  51.3982740
 161.7021690  70.6012270  50.4481100 147.4591360  77.3891040  54.9561010
 147.3388960  78.1153130  54.3442280 147.1492250  76.6193950  54.4788920
 146.3424360  82.2606370  57.1735830 145.9352440  82.4020960  56.3189430
 147.2337370  81.9766530  56.9707040 158.1357640  86.6953620  53.5086880
 157.9758780  86.4056560  54.4068710 157.9704350  85.9193750  52.9732110
 150.6146020  86.4752150  55.2858500 150.4388500  85.5587690  55.0726300
 149.7601760  86.8339440  55.5256300 157.8383770  84.2041180  52.0684880
 157.1448930  84.2018470  51.4087160 158.5806630  83.7800500  51.6379050
 157.4033700  85.8303890  56.1433370 157.8590650  85.0493270  56.4571990
 157.7426220  86.5410710  56.6874550 149.9255020  70.7326110  58.3384680
 149.4823170  71.5135650  58.0069200 150.4840010  71.0556000  59.0455620
 153.0413840  70.3536810  53.2190510 152.4168020  70.3496680  53.9443820
 152.9543960  69.4867770  52.8226480 151.9630920  71.2773440  60.1974280
 152.2603250  72.1836270  60.1166300 152.5116480  70.7892220  59.5833850
 149.7169240  75.8559680  56.0665930 149.4910160  75.6396850  56.9712550
 148.9361770  76.2888140  55.7211900 156.9467000  75.8623050  54.6656580
 156.3475890  76.5858850  54.4820200 157.4946610  75.7999830  53.8833030
 155.5531870  74.4986590  56.6959860 155.9461440  74.8158790  55.8828550
 155.9148720  73.6198470  56.8104380 144.5896040  71.0887390  58.9190060
 144.3009090  71.6590250  59.6315040 145.3341800  70.6091840  59.2821290
 144.7766270  75.0307510  50.1292780 144.6940940  75.9738270  50.2707770
 144.4249330  74.8882420  49.2505130 152.5764400  73.7646540  59.1963130
 152.5800460  73.3236490  58.3467670 153.4715520  74.0863870  59.3034950
 148.4266780  73.6473030  58.1557340 148.0866830  74.1248260  58.9124390
 147.6644100  73.1938150  57.7958440 152.6384550  74.7658620  52.1869890
 152.7597370  74.7245100  53.1355710 152.2533060  75.6282770  52.0316620
 151.6506050  77.0759760  51.5853190 151.0822950  76.6278010  50.9589100
 152.3595050  77.4352540  51.0518340 145.7412860  72.5692010  57.0722010
 145.4559780  72.2047680  57.9100630 145.6791720  71.8372470  56.4585150
 149.1953530  81.0717950  53.8579600 148.4215790  80.5315570  53.6978320
 149.9248160  80.5524560  53.5197360 159.9541510  80.0683310  59.6505990
 160.6740630  80.5638600  59.2602100 159.7523330  79.3901200  59.0059860
 155.4151450  71.4621270  53.7935380 154.6016060  70.9634440  53.7180690
 155.2213400  72.3019520  53.3771730 158.1299840  75.8340920  52.0897540
 159.0179460  76.1458150  51.9148880 158.1004930  74.9613170  51.6978120
 149.2390930  80.7398330  57.4958410 149.7569600  79.9366590  57.4415300
 148.7874950  80.6777470  58.3375240 154.1260430  82.0064610  52.7685710
 154.4676130  82.7506840  52.2729030 153.2973140  82.3195730  53.1310540
 160.4014110  77.1452760  51.5577400 160.3177830  77.5766980  50.7073840
 161.1208300  77.6051110  51.9904220 161.4301360  83.9995020  54.2859530
 160.7877520  83.3450640  54.5603250 161.0432020  84.4050110  53.5100200
 157.0087840  81.3280450  58.1331220 157.3611660  80.7308580  57.4732590
 156.1250170  81.0024680  58.3039470 153.0951120  82.0878140  55.5401630
 153.7822250  82.6347350  55.9209220 152.3083540  82.6318870  55.5751240
 145.2343520  77.7050960  51.0318710 146.1038370  77.9875760  51.3154630
 144.7433840  78.5186830  50.9167520 152.3978330  79.0924170  55.1526990
 152.8541110  79.9029420  55.3787180 152.0466540  78.7747310  55.9845480
 148.2990110  69.4361820  55.6249510 148.1704740  69.4279720  56.5734430
 147.4752130  69.7744910  55.2740520 159.8198740  82.8911480  50.8235880
 159.5936320  82.1741920  51.4160520 159.4294940  82.6423920  49.9857630
 145.6014770  86.9178340  51.5980340 145.9612410  87.5167680  50.9437610
 145.4607110  87.4638230  52.3715370 159.4014990  80.8083420  52.4850040
 159.1136690  81.2696110  53.2727920 160.1967160  80.3481190  52.7534260
 151.6183390  84.3009540  52.4154010 151.6093490  85.0339230  51.7998520
 150.6981750  84.0541120  52.5080970 147.2190030  79.5224430  53.1600770
 146.6117980  80.2623330  53.1696070 147.6939380  79.6123790  52.3338970
 160.1584850  72.6432190  53.6445220 159.5298010  72.7477860  52.9303450
 159.6636770  72.8628970  54.4339100 154.6042990  84.3637780  51.0779200
 154.7054970  84.1601770  50.1481180 153.7044730  84.1096060  51.2826980
 156.1584310  71.6468800  56.4998890 156.0352090  71.6654930  55.5508400
 157.1068870  71.6947740  56.6197290 153.2461100  86.8824100  55.7726870
 153.5002600  86.8445490  54.8506240 152.2973580  86.7557430  55.7655120
 150.3303900  73.2303220  52.4353810 151.1794430  73.6673370  52.3694000
 149.9635170  73.5423480  53.2625870 159.2513680  77.8015980  57.3485380
 158.3103820  77.8166210  57.5233070 159.5657750  77.0151940  57.7945680
 149.2295320  79.4835580  50.9089340 149.9958590  79.3716940  51.4714770
 149.3070010  78.7873550  50.2566110 147.9242080  76.9160650  51.5922230
 148.0045670  75.9688160  51.7039630 148.8161830  77.2467530  51.6982890
 161.2539260  84.9724830  59.0239640 161.3786680  85.7956000  59.4963450
 162.1204820  84.7615560  58.6763790 148.7256790  87.0656040  58.6956770
 149.4619270  86.5171500  58.9665340 149.1097710  87.9312050  58.5562760
 145.6102270  83.1329610  54.5698280 144.6842050  83.3750750  54.5603690
 146.0758700  83.9603870  54.4483030 151.8359100  86.2386350  50.5182340
 152.6287710  86.5275180  50.0664130 151.3163450  85.8078520  49.8394820
 160.8889270  85.4656480  51.9419080 160.6030780  85.0521620  51.1273260
 160.6908820  86.3944190  51.8219600 152.3536500  81.4589760  50.3824690
 152.2487140  80.8442110  51.1086070 152.1860720  80.9355650  49.5987700
 155.5939230  80.5209790  50.9866680 155.0449330  80.9679090  51.6309420
 156.2158490  80.0159040  51.5104350 151.2614350  79.4800710  52.8831980
 151.6830770  79.3140580  53.7263370 151.3865190  78.6700940  52.3887120
 153.7741990  78.5038320  50.1309080 154.2947650  77.7887340  49.7650230
 154.4210390  79.1424190  50.4309590 150.1573250  75.5533940  49.8290140
 149.9562310  74.6901300  50.1903480 149.9865300  75.4667300  48.8911740
 157.6361560  70.3642170  52.3577020 157.9163850  69.5210070  52.7136440
 156.8627290  70.5965280  52.8715770 148.9556050  72.6534560  49.8168020
 149.2581950  72.6601990  48.9087170 149.6950640  72.3032420  50.3135680
 152.1740980  71.5969180  50.8024220 151.8262980  70.9193170  50.2226670
 152.3753750  71.1358690  51.6167610 154.3390020  86.5849930  52.4210820
 155.2340810  86.9234900  52.4429580 154.3707650  85.8629340  51.7935100
 147.9786180  81.9576980  50.6497820 148.4161050  82.5006650  51.3055400
 148.4633910  81.1323930  50.6594160 145.1931980  84.7466010  58.1018080
 145.5234990  83.8787070  57.8696720 145.6222980  84.9524530  58.9323040
 149.7893900  83.0775020  55.7620050 149.4889440  82.9539990  56.6623960
 149.6831390  82.2183610  55.3535780 162.5585820  82.8571420  50.4646730
 161.7278780  82.9248070  50.9353960 162.7357650  83.7475540  50.1613590
 162.0142280  79.6018900  52.9680930 162.7761190  80.1715550  53.0740620
 162.0296650  79.0346100  53.7389240 145.5146620  78.1256830  57.1988590
 144.8595460  77.8568470  56.5548290 146.3524570  78.0161310  56.7490570
 163.0202250  80.4569000  57.8122860 163.3911080  79.6736320  57.4058830
 163.6604180  81.1458100  57.6340160 162.0661450  79.8953270  50.1253450
 162.3410290  80.8032150  49.9972670 161.8772190  79.8315800  51.0615440
 158.4637060  72.9198120  51.4207080 158.8821940  72.7329100  50.5803740
 158.1573120  72.0677170  51.7310010 161.9626790  77.8322260  55.1182880
 161.5870390  77.0650190  54.6864170 161.2329910  78.2144960  55.6057810
 144.7284700  75.3355760  53.1413920 143.8248780  75.5985960  52.9665580
 145.2125320  75.6066930  52.3613880 161.2377750  76.0579750  58.4190120
 161.7615230  75.5642400  57.7880290 161.8237170  76.1930110  59.1637690
 147.2711910  74.3921300  51.0508300 147.9803610  73.9704520  50.5655580
 146.5551850  74.4596530  50.4191650 146.9186070  70.4460630  50.0910950
 147.6414200  70.9869570  50.4092170 147.1910590  70.1724050  49.2152490
 160.7277720  75.3153100  54.3582530 161.2236840  75.0823970  55.1431410
 160.5293790  74.4764940  53.9420170 162.1564880  73.9514050  56.8920210
 162.0464160  73.7970090  57.8302480 162.9172470  73.4234990  56.6495620
 163.0455150  71.7821970  50.1326350 163.9704460  71.6503150  49.9244640
 163.0230940  71.8614790  51.0862800 163.1193640  72.5532630  52.7583060
 162.3245140  72.4877750  53.2875970 163.3236920  73.4883270  52.7468410
 160.0612060  86.5924180  56.7521450 160.6571130  86.2708750  56.0755870
 160.3190210  86.1196000  57.5434720 151.0419990  85.5507720  59.7567310
 151.5585010  84.9395080  59.2315570 151.6917370  86.0536500  60.2478320
 159.5513570  70.8829510  59.2081890 159.9921660  70.8274610  58.3603490
 159.2821160  71.7987520  59.2792070 161.4152140  70.5144750  57.2190710
 161.3540540  69.5705970  57.0721730 162.1944170  70.6224840  57.7644170
 145.7204890  86.6537110  56.1814660 145.5526930  86.0207790  56.8796550
 144.8539400  86.8596510  55.8308850 146.3432910  70.4853890  53.6846520
 147.1012270  70.5982770  53.1110550 145.8810080  71.3223090  53.6389950
 152.8846720  72.5993160  56.6748830 152.0721230  72.2250050  56.3344710
 153.3888360  71.8438240  56.9770020 157.3871700  69.2635610  57.9131900
 157.9901070  69.8355820  58.3880420 156.6464690  69.8275050  57.6905800
 160.5306300  69.6657170  53.1872180 160.7256930  70.5640620  53.4539610
 159.7436170  69.4344250  53.6805130 147.3267590  85.3470340  53.6264800
 146.8015210  85.7278370  52.9226760 147.2512170  85.9721110  54.3474510
 148.7158060  71.0117940  52.2248490 149.2450820  70.2247740  52.0956440
 149.3486380  71.6909130  52.4584020 150.9095900  70.7493080  55.2793880
 150.2798640  70.0480390  55.4464010 150.3701040  71.5097210  55.0627040
 162.0832910  86.9057880  54.9478740 162.2585100  86.2195620  54.3039660
 161.3854480  87.4304930  54.5555410 149.9260560  87.2952720  52.5014050
 150.6579380  87.0112000  51.9537940 150.1854230  87.0566000  53.3913430
 149.0875350  83.4117450  52.5060380 148.4584230  83.8802550  53.0546210
 149.2023180  82.5666670  52.9406570 156.5425070  77.4623110  38.6561580
 156.4619120  76.5477720  38.3853290 156.1289490  77.9590180  37.9501290
 154.6743110  79.2402130  40.5370850 153.8985210  78.7602570  40.8269420
 155.3256040  78.5607780  40.3627010 148.6908940  79.5521940  41.4146610
 147.8593820  79.2970650  41.8143120 149.2989920  79.6232710  42.1504530
 158.6950540  83.6462320  39.3169980 158.2332070  82.8749560  39.6457150
 159.5076090  83.6728390  39.8222430 148.6710200  83.5862030  41.6104630
 148.9738240  82.6959770  41.4314850 149.4153790  84.1432250  41.3826880
 147.1000890  74.5123830  35.1989000 146.2117590  74.8539800  35.0968880
 147.3842080  74.3124150  34.3069830 145.0633900  77.1129480  41.0828700
 145.6350010  76.3451680  41.0832340 145.0635440  77.4118240  40.1735310
 154.9213850  85.9320330  38.9373970 154.3025290  86.3877830  38.3668410
 155.7765630  86.0871790  38.5363670 154.1152100  81.9159320  40.5441010
 154.0460380  80.9749260  40.3830140 154.8771960  82.0060730  41.1163580
 146.3058770  72.5213840  42.8697630 146.1261610  71.6239590  43.1500390
 145.9038850  73.0685710  43.5444580 155.1457270  74.7229700  40.7709940
 155.5222090  73.8501580  40.6583610 155.0476780  75.0588400  39.8800380
 149.2762280  73.0955330  36.2327380 149.3829030  73.9959060  36.5396140
 148.3654640  73.0473300  35.9422030 158.9281390  72.2180140  37.7038280
 159.7491010  71.7276710  37.7463760 158.9615470  72.8077800  38.4570120
 146.9245440  75.0174340  41.4779970 147.6055550  75.2812710  42.0967370
 146.6093490  74.1775210  41.8117980 151.1170010  76.0641700  40.5652560
 151.6248230  76.5622670  41.2057580 151.6483250  75.2876900  40.3891920
 163.2180940  74.2346890  44.2681910 162.5133110  74.6228600  43.7497020
 163.4838860  74.9297180  44.8702840 149.4006110  70.7040260  44.8315980
 149.4024550  71.2212650  44.0261880 148.5710420  70.2270440  44.8085910
 155.7877200  80.8159570  36.3305880 155.1694470  81.2809020  35.7668600
 156.3000450  81.5087050  36.7475390 150.6508960  80.3435440  43.0089480
 150.3178340  80.9704360  43.6510550 150.8275640  80.8697320  42.2291150
 159.1642870  74.1580520  40.4765820 158.4598440  74.4465410  41.0568930
 159.5255030  74.9680630  40.1165380 149.0821440  72.4150220  42.8386430
 149.4238250  73.2592270  42.5440300 148.1437250  72.5633960  42.9551770
 149.8628060  82.3116240  44.8238660 150.4802060  82.9867320  44.5423110
 149.0021180  82.7204220  44.7326160 145.1560400  81.5016100  33.7045510
 144.7788380  81.9903200  32.9730410 145.4133470  82.1741380  34.3352040
 160.7805650  83.7755650  42.7393300 160.0969170  84.4454760  42.7309970
 161.3199940  83.9736300  41.9738160 162.2329790  73.6035310  40.8675030
 161.2854700  73.6374290  40.9990460 162.5579780  74.4174260  41.2524390
 152.7649330  69.9032490  39.1631020 153.0724310  69.3479380  38.4466520
 151.8350030  70.0376950  38.9804010 158.3164390  85.6199780  41.4538480
 158.3291550  85.2162070  40.5860740 157.7639610  86.3947070  41.3499910
 159.6109810  82.3416000  36.5428650 159.5006140  81.3990330  36.6678070
 159.6078060  82.7031640  37.4291410 157.7149830  80.5229620  42.7821090
 158.1318620  80.3089730  41.9474550 158.4389650  80.7802410  43.3529710
 155.1530090  77.9681320  35.8991140 154.2259370  77.9018700  36.1279610
 155.3054910  78.9061450  35.7846380 155.1399170  74.2398320  32.8958300
 154.2002840  74.4012280  32.9810760 155.4582430  74.9584000  32.3494290
 161.6611930  78.9216840  42.8737330 160.8330560  78.9909930  42.3987460
 162.2562410  79.5071150  42.4053160 159.1827380  79.5301620  36.4026390
 158.5639800  79.1921170  35.7552690 159.1651830  78.8861380  37.1105580
 158.6253940  75.7086160  43.8192200 158.2125120  76.5339870  44.0732190
 157.8929890  75.1231200  43.6268560 150.7586730  78.4946060  38.6810870
 150.3543730  77.7823310  38.1856770 150.8449850  78.1499300  39.5698910
 151.2268430  82.1813620  40.8450080 150.9296720  81.5759090  40.1657860
 152.1768250  82.2190930  40.7339440 149.4715350  75.2689270  42.4609910
 150.0229940  75.3784610  41.6863160 149.9858860  75.6426870  43.1765140
 159.3154040  85.7545490  44.5073180 158.8384600  86.5617680  44.3145790
 158.6315830  85.1023820  44.6599390 150.3186860  81.9195310  47.4957880
 149.4215390  82.1435280  47.7431280 150.3439730  82.0430250  46.5469280
 157.3592080  78.7688430  33.4099140 157.7985360  77.9310860  33.2636960
 158.0720500  79.4017830  33.4963280 149.1458080  78.7908630  46.0715250
 149.0065850  79.6631430  46.4402650 148.2639440  78.4481440  45.9263190
 155.4687460  83.7084500  37.3780380 155.9083370  84.4508830  36.9635770
 155.4074350  83.9511070  38.3019340 150.9438430  84.7330330  48.2800400
 150.9153860  85.1373280  47.4128830 150.7803400  83.8040690  48.1172000
 160.9409220  70.0231240  31.7240180 160.6281880  70.1158070  32.6239250
 161.7021690  70.6012270  31.6737610 147.4591360  77.3891040  36.1817520
 147.3388960  78.1153130  35.5698790 147.1492250  76.6193950  35.7045430
 162.8953250  85.5157430  49.5764570 163.3712970  85.9940320  50.2553650
 163.5160410  85.4474920  48.8510070 145.0976730  80.5606180  41.9886160
 145.1757150  80.6954950  41.0441880 145.7118410  79.8522070  42.1814280
 146.3424360  82.2606370  38.3992340 145.9352440  82.4020960  37.5445940
 147.2337370  81.9766530  38.1963550 162.2986500  82.7070280  46.7364580
 162.4249560  82.4682160  45.8181760 162.3407880  81.8754820  47.2086660
 156.1603240  86.4098280  45.3059390 156.6747910  86.3206290  46.1081820
 155.3172320  86.7557980  45.5987300 158.1357640  86.6953620  34.7343390
 157.9758780  86.4056560  35.6325220 157.9704350  85.9193750  34.1988620
 150.6146020  86.4752150  36.5115010 150.4388500  85.5587690  36.2982810
 149.7601760  86.8339440  36.7512810 157.8383770  84.2041180  33.2941390
 157.1448930  84.2018470  32.6343670 158.5806630  83.7800500  32.8635560
 157.4033700  85.8303890  37.3689880 157.8590650  85.0493270  37.6828500
 157.7426220  86.5410710  37.9131060 162.1510510  74.7602740  47.7014320
 161.5354780  75.2682410  47.1729780 161.8306930  73.8601070  47.6440260
 145.1536250  81.6020350  44.5280620 145.3167290  81.1325710  43.7099990
 145.6188700  81.0943910  45.1929460 149.9255020  70.7326110  39.5641190
 149.4823170  71.5135650  39.2325710 150.4840010  71.0556000  40.2712130
 154.2124830  73.5994630  45.1676510 153.7504200  73.8077650  45.9796450
 153.8102940  72.7853980  44.8647180 159.2129340  74.8203580  46.2973170
 158.3622930  74.5209330  46.6182240 159.0531130  75.0645590  45.3856990
 156.3079050  76.3205330  48.3971960 156.6332460  75.4869080  48.0574190
 157.0959380  76.8433850  48.5450290 153.0413840  70.3536810  34.4447020
 152.4168020  70.3496680  35.1700330 152.9543960  69.4867770  34.0482990
 151.9630920  71.2773440  41.4230790 152.2603250  72.1836270  41.3422810
 152.5116480  70.7892220  40.8090360 149.7169240  75.8559680  37.2922440
 149.4910160  75.6396850  38.1969060 148.9361770  76.2888140  36.9468410
 156.9467000  75.8623050  35.8913090 156.3475890  76.5858850  35.7076710
 157.4946610  75.7999830  35.1089540 152.1568450  76.7545260  47.9582710
 152.0612050  75.8139990  47.8083110 153.0000430  76.9760330  47.5630780
 155.5531870  74.4986590  37.9216370 155.9461440  74.8158790  37.1085060
 155.9148720  73.6198470  38.0360890 147.2878990  73.1658930  46.1116490
 146.8942380  74.0134140  46.3189270 146.5997390  72.5285300  46.3025130
 153.8624040  73.2493900  49.1813230 153.1722360  73.0566100  49.8159320
 154.6056340  73.5328540  49.7137530 144.5896040  71.0887390  40.1446570
 144.3009090  71.6590250  40.8571550 145.3341800  70.6091840  40.5077800
 144.7766270  75.0307510  31.3549290 144.6940940  75.9738270  31.4964280
 144.4249330  74.8882420  30.4761640 156.1387010  77.0892340  42.0167150
 155.4068130  77.5979150  42.3657250 155.7411350  76.2722320  41.7155930
 152.5764400  73.7646540  40.4219640 152.5800460  73.3236490  39.5724180
 153.4715520  74.0863870  40.5291460 148.4266780  73.6473030  39.3813850
 148.0866830  74.1248260  40.1380900 147.6644100  73.1938150  39.0214950
 152.6384550  74.7658620  33.4126400 152.7597370  74.7245100  34.3612220
 152.2533060  75.6282770  33.2573130 156.6012920  72.5426020  41.4290090
 156.6185660  72.9934670  42.2731940 156.3528500  71.6431660  41.6423530
 151.6506050  77.0759760  32.8109700 151.0822950  76.6278010  32.1845610
 152.3595050  77.4352540  32.2774850 160.0283670  69.9558200  47.2676470
 160.3529440  69.2247860  47.7934450 160.0640180  69.6371840  46.3657460
 146.7275230  80.9771780  46.6876430 146.3430020  80.3365450  47.2859390
 147.0387420  81.6807900  47.2571160 152.8772370  77.8248320  42.1685050
 153.2442500  77.3506890  42.9146390 152.6877430  78.6989890  42.5093390
 145.7412860  72.5692010  38.2978520 145.4559780  72.2047680  39.1357140
 145.6791720  71.8372470  37.6841660 150.6671740  76.8656960  44.4869260
 150.3628810  77.7448940  44.7119620 151.6218200  76.9256750  44.5226700
 149.1953530  81.0717950  35.0836110 148.4215790  80.5315570  34.9234830
 149.9248160  80.5524560  34.7453870 159.9541510  80.0683310  40.8762500
 160.6740630  80.5638600  40.4858610 159.7523330  79.3901200  40.2316370
 155.4151450  71.4621270  35.0191890 154.6016060  70.9634440  34.9437200
 155.2213400  72.3019520  34.6028240 155.3360310  80.1392370  46.7631500
 155.2697620  79.2188040  46.5089090 154.7065450  80.2367810  47.4776140
 158.1299840  75.8340920  33.3154050 159.0179460  76.1458150  33.1405390
 158.1004930  74.9613170  32.9234630 149.2390930  80.7398330  38.7214920
 149.7569600  79.9366590  38.6671810 148.7874950  80.6777470  39.5631750
 154.1260430  82.0064610  33.9942220 154.4676130  82.7506840  33.4985540
 153.2973140  82.3195730  34.3567050 146.7235470  77.7059700  45.6340620
 146.3650410  78.3713550  46.2213960 146.4290030  76.8743250  46.0053240
 149.9248590  78.1643940  48.5180170 149.6248730  78.3101120  47.6207990
 150.6959830  77.6049230  48.4253560 155.2677040  82.9612940  46.5135300
 155.2821580  82.0293900  46.2954210 154.5602140  83.0472700  47.1525070
 160.4014110  77.1452760  32.7833910 160.3177830  77.5766980  31.9330350
 161.1208300  77.6051110  33.2160730 161.4788250  79.6020280  45.8603880
 160.7536440  80.1949060  45.6633270 162.0063710  79.5943820  45.0617250
 161.4301360  83.9995020  35.5116040 160.7877520  83.3450640  35.7859760
 161.0432020  84.4050110  34.7356710 157.0087840  81.3280450  39.3587730
 157.3611660  80.7308580  38.6989100 156.1250170  81.0024680  39.5295980
 145.2343520  77.7050960  32.2575220 146.1038370  77.9875760  32.5411140
 144.7433840  78.5186830  32.1424030 152.3978330  79.0924170  36.3783500
 152.8541110  79.9029420  36.6043690 152.0466540  78.7747310  37.2101990
 154.7010940  84.6030510  43.6075800 155.3453160  84.8089890  44.2849220
 155.0640380  83.8418910  43.1546650 148.2990110  69.4361820  36.8506020
 148.1704740  69.4279720  37.7990940 147.4752130  69.7744910  36.4997030
 155.9743020  82.6062860  42.3253250 156.6165250  81.9056020  42.4385420
 156.4992370  83.3861300  42.1450140 159.8198740  82.8911480  32.0492390
 159.5936320  82.1741920  32.6417030 159.4294940  82.6423920  31.2114140
 157.7480640  83.4057760  45.5289310 158.0836880  83.9924450  46.2067230
 156.8280980  83.2750470  45.7587100 145.6014770  86.9178340  32.8236850
 145.9612410  87.5167680  32.1694120 145.4607110  87.4638230  33.5971880
 145.2984040  71.1952940  46.3112720 144.5842560  71.3949860  46.9165330
 145.7179080  70.4192510  46.6827520 159.4014990  80.8083420  33.7106550
 159.1136690  81.2696110  34.4984430 160.1967160  80.3481190  33.9790770
 145.5856630  85.1833200  47.2979250 145.6947750  84.2427940  47.1574640
 144.9337190  85.4487950  46.6492980 153.5769220  83.4549090  48.6977370
 153.2566090  82.7358330  49.2423060 152.9027580  84.1304160  48.7713430
 151.6183390  84.3009540  33.6410520 151.6093490  85.0339230  33.0255030
 150.6981750  84.0541120  33.7337480 147.2190030  79.5224430  34.3857280
 146.6117980  80.2623330  34.3952580 147.6939380  79.6123790  33.5595480
 156.7922820  73.6875250  44.0614170 157.1603640  72.8670460  44.3893740
 155.9321020  73.7477140  44.4769820 160.1584850  72.6432190  34.8701730
 159.5298010  72.7477860  34.1559960 159.6636770  72.8628970  35.6595610
 154.6042990  84.3637780  32.3035710 154.7054970  84.1601770  31.3737690
 153.7044730  84.1096060  32.5083490 152.1268880  74.9218140  36.2859610
 151.4185030  75.3904480  36.7273220 152.4113360  74.2640150  36.9204800
 153.7524810  76.3414840  44.2852140 154.2510060  76.8160660  44.9503990
 153.8947760  75.4178360  44.4922170 156.1584310  71.6468800  37.7255400
 156.0352090  71.6654930  36.7764910 157.1068870  71.6947740  37.8453800
 153.2461100  86.8824100  36.9983380 153.5002600  86.8445490  36.0762750
 152.2973580  86.7557430  36.9911630 150.3303900  73.2303220  33.6610320
 151.1794430  73.6673370  33.5950510 149.9635170  73.5423480  34.4882380
 160.9591670  72.5582800  45.1280530 160.4565270  73.2988200  45.4674340
 161.7748330  72.9466800  44.8117320 159.2513680  77.8015980  38.5741890
 158.3103820  77.8166210  38.7489580 159.5657750  77.0151940  39.0202190
 149.2295320  79.4835580  32.1345850 149.9958590  79.3716940  32.6971280
 149.3070010  78.7873550  31.4822620 147.9242080  76.9160650  32.8178740
 148.0045670  75.9688160  32.9296140 148.8161830  77.2467530  32.9239400
 161.2539260  84.9724830  40.2496150 161.3786680  85.7956000  40.7219960
 162.1204820  84.7615560  39.9020300 148.7256790  87.0656040  39.9213280
 149.4619270  86.5171500  40.1921850 149.1097710  87.9312050  39.7819270
 145.6102270  83.1329610  35.7954790 144.6842050  83.3750750  35.7860200
 146.0758700  83.9603870  35.6739540 147.7315070  86.2502110  49.1098860
 148.5327800  86.5714160  49.5234260 147.2166890  85.8897690  49.8318770
 151.8359100  86.2386350  31.7438850 152.6287710  86.5275180  31.2920640
 151.3163450  85.8078520  31.0651330 156.5679700  82.3581980  49.0574270
 155.9617860  82.3813580  48.3170020 156.2633810  81.6265020  49.5941520
 157.9980070  86.0862270  47.6683680 158.9501820  86.0020290  47.6183920
 157.8508290  86.7503980  48.3417470 160.8889270  85.4656480  33.1675590
 160.6030780  85.0521620  32.3529770 160.6908820  86.3944190  33.0476110
 145.4512880  78.7375570  48.0534910 145.9551900  78.1582850  48.6251140
 144.7120300  79.0215800  48.5911280 152.3536500  81.4589760  31.6081200
 152.2487140  80.8442110  32.3342580 152.1860720  80.9355650  30.8244210
 152.5050820  80.1446560  47.5870430 151.7396490  80.7131560  47.5025100
 152.6866780  79.8522770  46.6938660 155.5939230  80.5209790  32.2123190
 155.0449330  80.9679090  32.8565930 156.2158490  80.0159040  32.7360860
 159.6474170  81.8751890  48.1445450 160.3883640  82.2127650  47.6412910
 158.8846850  82.0443950  47.5915220 147.4835960  76.8805160  48.9484980
 147.5241300  76.5819030  49.8570210 148.3381460  77.2812770  48.7892500
 151.2614350  79.4800710  34.1088490 151.6830770  79.3140580  34.9519880
 151.3865190  78.6700940  33.6143630 149.4241770  75.4597260  46.9159470
 148.8938230  74.9688210  46.2882810 150.0929840  75.8881460  46.3817400
 153.7741990  78.5038320  31.3565590 154.2947650  77.7887340  30.9906740
 154.4210390  79.1424190  31.6566100 158.3219830  79.9266720  46.6800660
 158.7360850  80.0811800  47.5291080 157.3870830  80.0521940  46.8426440
 158.7942000  77.2662880  48.6839810 159.3762770  76.5115200  48.5960290
 158.9703770  77.7970320  47.9071290 149.9114070  72.4259630  46.9956760
 149.8170940  71.8080380  46.2707630 149.3311460  73.1525920  46.7686670
 152.6775510  70.9832870  44.0284150 152.2292810  71.0057130  43.1829700
 152.0440710  70.5851890  44.6254450 153.0835060  79.8787200  44.6496590
 153.5023170  80.7219930  44.4772830 152.1643690  80.0159240  44.4203370
 155.4198960  77.6103380  46.0334430 155.5395170  77.0144520  46.7729270
 156.2792960  77.6473070  45.6135730 157.7586860  78.1640570  44.6096940
 157.2322080  78.6883190  44.0062080 158.1018200  78.7967960  45.2406670
 150.1573250  75.5533940  31.0546650 149.9562310  74.6901300  31.4159990
 149.9865300  75.4667300  30.1168250 150.9342480  86.1840210  45.7654320
 150.3963570  86.9086270  45.4463020 151.1876440  85.7070550  44.9751660
 152.1867730  74.1524730  47.2910250 152.7767420  73.8440580  47.9788070
 151.3687970  73.6804480  47.4470150 157.0061160  73.7690540  47.5243270
 156.3176680  73.1072080  47.4593260 157.7267180  73.3228810  47.9691730
 157.6361560  70.3642170  33.5833530 157.9163850  69.5210070  33.9392950
 156.8627290  70.5965280  34.0972280 148.9556050  72.6534560  31.0424530
 149.2581950  72.6601990  30.1343680 149.6950640  72.3032420  31.5392190
 153.7904690  87.4191420  46.0240970 153.7163390  88.3226560  46.3313340
 152.8883530  87.1003320  45.9963040 152.1740980  71.5969180  32.0280730
 151.8262980  70.9193170  31.4483180 152.3753750  71.1358690  32.8424120
 154.3390020  86.5849930  33.6467330 155.2340810  86.9234900  33.6686090
 154.3707650  85.8629340  33.0191610 147.9786180  81.9576980  31.8754330
 148.4161050  82.5006650  32.5311910 148.4633910  81.1323930  31.8850670
 145.1931980  84.7466010  39.3274590 145.5234990  83.8787070  39.0953230
 145.6222980  84.9524530  40.1579550 149.7893900  83.0775020  36.9876560
 149.4889440  82.9539990  37.8880470 149.6831390  82.2183610  36.5792290
 145.6822190  85.6136600  42.0656220 145.2453180  85.7937400  42.8980370
 146.2499870  86.3711220  41.9237940 161.3184370  85.1153600  46.3533530
 160.7186360  85.1746160  45.6097450 161.4478270  84.1758580  46.4830380
 162.5585820  82.8571420  31.6903240 161.7278780  82.9248070  32.1610470
 162.7357650  83.7475540  31.3870100 162.0142280  79.6018900  34.1937440
 162.7761190  80.1715550  34.2997130 162.0296650  79.0346100  34.9645750
 145.5146620  78.1256830  38.4245100 144.8595460  77.8568470  37.7804800
 146.3524570  78.0161310  37.9747080 163.0202250  80.4569000  39.0379370
 163.3911080  79.6736320  38.6315340 163.6604180  81.1458100  38.8596670
 160.0036010  81.8405580  44.4509690 159.1895850  82.2702740  44.7135480
 160.4110210  82.4523990  43.8378740 162.0661450  79.8953270  31.3509960
 162.3410290  80.8032150  31.2229180 161.8772190  79.8315800  32.2871950
 158.4637060  72.9198120  32.6463590 158.8821940  72.7329100  31.8060250
 158.1573120  72.0677170  32.9566520 161.9626790  77.8322260  36.3439390
 161.5870390  77.0650190  35.9120680 161.2329910  78.2144960  36.8314320
 146.5522550  78.5109400  42.9648440 146.9195590  78.4236800  43.8444460
 145.9833370  77.7475950  42.8655300 161.3526410  76.9793780  45.9778910
 161.1212500  76.7506530  45.0776860 161.6130960  77.8993330  45.9323800
 146.1038550  75.4218490  46.8706860 145.2094600  75.3885250  47.2100570
 146.6436100  75.6205280  47.6358110 159.7914480  72.2050210  48.7558610
 160.6684660  72.2133610  49.1392610 159.8035320  71.4681050  48.1450960
 144.7284700  75.3355760  34.3670430 143.8248780  75.5985960  34.1922090
 145.2125320  75.6066930  33.5870390 161.2377750  76.0579750  39.6446630
 161.7615230  75.5642400  39.0136800 161.8237170  76.1930110  40.3894200
 161.4167470  76.1419620  43.1666180 160.4670180  76.1083160  43.2811170
 161.5980480  77.0519730  42.9315950 147.2711910  74.3921300  32.2764810
 147.9803610  73.9704520  31.7912090 146.5551850  74.4596530  31.6448160
 146.9186070  70.4460630  31.3167460 147.6414200  70.9869570  31.6348680
 147.1910590  70.1724050  30.4409000 160.7277720  75.3153100  35.5839040
 161.2236840  75.0823970  36.3687920 160.5293790  74.4764940  35.1676680
 146.6078260  69.6966820  41.2190080 147.2554450  69.1464200  40.7785240
 147.0280100  69.9509970  42.0405890 162.1564880  73.9514050  38.1176720
 162.0464160  73.7970090  39.0558990 162.9172470  73.4234990  37.8752130
 160.5030600  69.8908180  44.5759720 161.1402820  70.5042320  44.9418910
 160.6505490  69.9268840  43.6308950 163.0455150  71.7821970  31.3582860
 163.9704460  71.6503150  31.1501150 163.0230940  71.8614790  32.3119310
 163.1193640  72.5532630  33.9839570 162.3245140  72.4877750  34.5132480
 163.3236920  73.4883270  33.9724920 160.0612060  86.5924180  37.9777960
 160.6571130  86.2708750  37.3012380 160.3190210  86.1196000  38.7691230
 146.3610260  69.8522490  43.9615400 146.0125080  70.3086310  44.7273580
 146.0297960  68.9579620  44.0437830 147.9674630  83.0242090  48.1268590
 147.9244260  82.6535000  49.0083050 148.0985640  83.9619660  48.2670410
 151.6680660  84.5801680  43.7278310 151.4272020  84.8476240  42.8408830
 152.6083300  84.7507410  43.7829170 153.8735080  71.0434370  47.4834820
 153.8123970  71.6356200  48.2330230 154.8135460  70.9360330  47.3385080
 156.5109640  70.7004430  47.1227110 157.1250050  71.0183720  46.4608190
 157.0559200  70.2153020  47.7422970 162.9284820  86.5996060  44.5288950
 162.4343100  86.9964930  43.8116080 162.3198110  85.9745270  44.9226230
 147.0330900  69.3798690  47.2366170 147.5813890  69.1986740  46.4732280
 147.0986210  68.5892800  47.7722480 147.8062660  85.9704340  45.2466370
 147.2122980  85.8389040  45.9856410 147.7986500  85.1342480  44.7808470
 157.2517680  69.2636570  43.4496400 156.3777520  69.5971680  43.2469330
 157.1428430  68.7909750  44.2748270 158.1589660  71.4707440  44.8338120
 157.8303020  70.6559200  44.4539850 159.1071960  71.4277250  44.7103810
 160.6124270  87.2419480  41.8075690 160.1527240  87.9935290  41.4333710
 159.9836730  86.5225950  41.7490490 147.4374890  83.3362720  44.1974410
 146.7108950  82.7168010  44.1300360 147.4984040  83.7303330  43.3272490
 151.0419990  85.5507720  40.9823820 151.5585010  84.9395080  40.4572080
 151.6917370  86.0536500  41.4734830 153.7815490  86.4416210  41.8092800
 154.0693300  86.1870510  40.9325810 154.2938710  85.8893570  42.3998370
 154.9992500  70.1806410  42.3889310 154.2164290  70.6551910  42.6686070
 154.7055430  69.2761240  42.2802490 159.5513570  70.8829510  40.4338400
 159.9921660  70.8274610  39.5860000 159.2821160  71.7987520  40.5048580
 161.4152140  70.5144750  38.4447220 161.3540540  69.5705970  38.2978240
 162.1944170  70.6224840  38.9900680 145.7204890  86.6537110  37.4071170
 145.5526930  86.0207790  38.1053060 144.8539400  86.8596510  37.0565360
 146.3432910  70.4853890  34.9103030 147.1012270  70.5982770  34.3367060
 145.8810080  71.3223090  34.8646460 152.8846720  72.5993160  37.9005340
 152.0721230  72.2250050  37.5601220 153.3888360  71.8438240  38.2026530
 157.3871700  69.2635610  39.1388410 157.9901070  69.8355820  39.6136930
 156.6464690  69.8275050  38.9162310 160.5306300  69.6657170  34.4128690
 160.7256930  70.5640620  34.6796120 159.7436170  69.4344250  34.9061640
 147.3267590  85.3470340  34.8521310 146.8015210  85.7278370  34.1483270
 147.2512170  85.9721110  35.5731020 148.7158060  71.0117940  33.4505000
 149.2450820  70.2247740  33.3212950 149.3486380  71.6909130  33.6840530
 150.9095900  70.7493080  36.5050390 150.2798640  70.0480390  36.6720520
 150.3701040  71.5097210  36.2883550 153.8487850  87.3632310  49.1761000
 154.7755160  87.1276580  49.2196960 153.8338280  88.1904310  48.6947030
 162.0832910  86.9057880  36.1735250 162.2585100  86.2195620  35.5296170
 161.3854480  87.4304930  35.7811920 151.0351460  70.0277060  48.9402880
 150.7535730  70.5310660  48.1763700 151.4171160  69.2298810  48.5745010
 149.9260560  87.2952720  33.7270560 150.6579380  87.0112000  33.1794450
 150.1854230  87.0566000  34.6169940 149.0875350  83.4117450  33.7316890
 148.4584230  83.8802550  34.2802720 149.2023180  82.5666670  34.1663080
 157.6366920  69.4430640  49.5183350 157.5232370  69.7625250  50.4134870
 158.4536660  69.8443150  49.2220630 160.4165410  86.5902170  49.0002040
 161.2090730  86.0951400  48.7928000 160.7098560  87.2692310  49.6077650
 156.5425070  77.4623110  19.8818090 156.4619120  76.5477720  19.6109800
 156.1289490  77.9590180  19.1757800 154.6743110  79.2402130  21.7627360
 153.8985210  78.7602570  22.0525930 155.3256040  78.5607780  21.5883520
 148.6908940  79.5521940  22.6403120 147.8593820  79.2970650  23.0399630
 149.2989920  79.6232710  23.3761040 158.6950540  83.6462320  20.5426490
 158.2332070  82.8749560  20.8713660 159.5076090  83.6728390  21.0478940
 148.6710200  83.5862030  22.8361140 148.9738240  82.6959770  22.6571360
 149.4153790  84.1432250  22.6083390 147.1000890  74.5123830  16.4245510
 146.2117590  74.8539800  16.3225390 147.3842080  74.3124150  15.5326340
 145.0633900  77.1129480  22.3085210 145.6350010  76.3451680  22.3088850
 145.0635440  77.4118240  21.3991820 154.9213850  85.9320330  20.1630480
 154.3025290  86.3877830  19.5924920 155.7765630  86.0871790  19.7620180
 154.1152100  81.9159320  21.7697520 154.0460380  80.9749260  21.6086650
 154.8771960  82.0060730  22.3420090 146.3058770  72.5213840  24.0954140
 146.1261610  71.6239590  24.3756900 145.9038850  73.0685710  24.7701090
 155.1457270  74.7229700  21.9966450 155.5222090  73.8501580  21.8840120
 155.0476780  75.0588400  21.1056890 149.2762280  73.0955330  17.4583890
 149.3829030  73.9959060  17.7652650 148.3654640  73.0473300  17.1678540
 158.9281390  72.2180140  18.9294790 159.7491010  71.7276710  18.9720270
 158.9615470  72.8077800  19.6826630 146.9245440  75.0174340  22.7036480
 147.6055550  75.2812710  23.3223880 146.6093490  74.1775210  23.0374490
 151.1170010  76.0641700  21.7909070 151.6248230  76.5622670  22.4314090
 151.6483250  75.2876900  21.6148430 163.2180940  74.2346890  25.4938420
 162.5133110  74.6228600  24.9753530 163.4838860  74.9297180  26.0959350
 149.4006110  70.7040260  26.0572490 149.4024550  71.2212650  25.2518390
 148.5710420  70.2270440  26.0342420 155.7877200  80.8159570  17.5562390
 155.1694470  81.2809020  16.9925110 156.3000450  81.5087050  17.9731900
 150.6508960  80.3435440  24.2345990 150.3178340  80.9704360  24.8767060
 150.8275640  80.8697320  23.4547660 159.1642870  74.1580520  21.7022330
 158.4598440  74.4465410  22.2825440 159.5255030  74.9680630  21.3421890
 149.0821440  72.4150220  24.0642940 149.4238250  73.2592270  23.7696810
 148.1437250  72.5633960  24.1808280 149.8628060  82.3116240  26.0495170
 150.4802060  82.9867320  25.7679620 149.0021180  82.7204220  25.9582670
 145.1560400  81.5016100  14.9302020 144.7788380  81.9903200  14.1986920
 145.4133470  82.1741380  15.5608550 160.7805650  83.7755650  23.9649810
 160.0969170  84.4454760  23.9566480 161.3199940  83.9736300  23.1994670
 162.2329790  73.6035310  22.0931540 161.2854700  73.6374290  22.2246970
 162.5579780  74.4174260  22.4780900 152.7649330  69.9032490  20.3887530
 153.0724310  69.3479380  19.6723030 151.8350030  70.0376950  20.2060520
 158.3164390  85.6199780  22.6794990 158.3291550  85.2162070  21.8117250
 157.7639610  86.3947070  22.5756420 159.6109810  82.3416000  17.7685160
 159.5006140  81.3990330  17.8934580 159.6078060  82.7031640  18.6547920
 157.7149830  80.5229620  24.0077600 158.1318620  80.3089730  23.1731060
 158.4389650  80.7802410  24.5786220 155.1530090  77.9681320  17.1247650
 154.2259370  77.9018700  17.3536120 155.3054910  78.9061450  17.0102890
 155.1399170  74.2398320  14.1214810 154.2002840  74.4012280  14.2067270
 155.4582430  74.9584000  13.5750800 161.6611930  78.9216840  24.0993840
 160.8330560  78.9909930  23.6243970 162.2562410  79.5071150  23.6309670
 159.1827380  79.5301620  17.6282900 158.5639800  79.1921170  16.9809200
 159.1651830  78.8861380  18.3362090 158.6253940  75.7086160  25.0448710
 158.2125120  76.5339870  25.2988700 157.8929890  75.1231200  24.8525070
 150.7586730  78.4946060  19.9067380 150.3543730  77.7823310  19.4113280
 150.8449850  78.1499300  20.7955420 151.2268430  82.1813620  22.0706590
 150.9296720  81.5759090  21.3914370 152.1768250  82.2190930  21.9595950
 149.4715350  75.2689270  23.6866420 150.0229940  75.3784610  22.9119670
 149.9858860  75.6426870  24.4021650 159.3154040  85.7545490  25.7329690
 158.8384600  86.5617680  25.5402300 158.6315830  85.1023820  25.8855900
 150.3186860  81.9195310  28.7214390 149.4215390  82.1435280  28.9687790
 150.3439730  82.0430250  27.7725790 157.3592080  78.7688430  14.6355650
 157.7985360  77.9310860  14.4893470 158.0720500  79.4017830  14.7219790
 149.1458080  78.7908630  27.2971760 149.0065850  79.6631430  27.6659160
 148.2639440  78.4481440  27.1519700 155.4687460  83.7084500  18.6036890
 155.9083370  84.4508830  18.1892280 155.4074350  83.9511070  19.5275850
 150.9438430  84.7330330  29.5056910 150.9153860  85.1373280  28.6385340
 150.7803400  83.8040690  29.3428510 160.9409220  70.0231240  12.9496690
 160.6281880  70.1158070  13.8495760 161.7021690  70.6012270  12.8994120
 147.4591360  77.3891040  17.4074030 147.3388960  78.1153130  16.7955300
 147.1492250  76.6193950  16.9301940 162.8953250  85.5157430  30.8021080
 163.3712970  85.9940320  31.4810160 163.5160410  85.4474920  30.0766580
 145.0976730  80.5606180  23.2142670 145.1757150  80.6954950  22.2698390
 145.7118410  79.8522070  23.4070790 146.3424360  82.2606370  19.6248850
 145.9352440  82.4020960  18.7702450 147.2337370  81.9766530  19.4220060
 162.2986500  82.7070280  27.9621090 162.4249560  82.4682160  27.0438270
 162.3407880  81.8754820  28.4343170 156.1603240  86.4098280  26.5315900
 156.6747910  86.3206290  27.3338330 155.3172320  86.7557980  26.8243810
 158.1357640  86.6953620  15.9599900 157.9758780  86.4056560  16.8581730
 157.9704350  85.9193750  15.4245130 150.6146020  86.4752150  17.7371520
 150.4388500  85.5587690  17.5239320 149.7601760  86.8339440  17.9769320
 157.8383770  84.2041180  14.5197900 157.1448930  84.2018470  13.8600180
 158.5806630  83.7800500  14.0892070 157.4033700  85.8303890  18.5946390
 157.8590650  85.0493270  18.9085010 157.7426220  86.5410710  19.1387570
 162.1510510  74.7602740  28.9270830 161.5354780  75.2682410  28.3986290
 161.8306930  73.8601070  28.8696770 145.1536250  81.6020350  25.7537130
 145.3167290  81.1325710  24.9356500 145.6188700  81.0943910  26.4185970
 149.9255020  70.7326110  20.7897700 149.4823170  71.5135650  20.4582220
 150.4840010  71.0556000  21.4968640 154.2124830  73.5994630  26.3933020
 153.7504200  73.8077650  27.2052960 153.8102940  72.7853980  26.0903690
 159.2129340  74.8203580  27.5229680 158.3622930  74.5209330  27.8438750
 159.0531130  75.0645590  26.6113500 156.3079050  76.3205330  29.6228470
 156.6332460  75.4869080  29.2830700 157.0959380  76.8433850  29.7706800
 153.0413840  70.3536810  15.6703530 152.4168020  70.3496680  16.3956840
 152.9543960  69.4867770  15.2739500 151.9630920  71.2773440  22.6487300
 152.2603250  72.1836270  22.5679320 152.5116480  70.7892220  22.0346870
 149.7169240  75.8559680  18.5178950 149.4910160  75.6396850  19.4225570
 148.9361770  76.2888140  18.1724920 156.9467000  75.8623050  17.1169600
 156.3475890  76.5858850  16.9333220 157.4946610  75.7999830  16.3346050
 152.1568450  76.7545260  29.1839220 152.0612050  75.8139990  29.0339620
 153.0000430  76.9760330  28.7887290 155.5531870  74.4986590  19.1472880
 155.9461440  74.8158790  18.3341570 155.9148720  73.6198470  19.2617400
 147.2878990  73.1658930  27.3373000 146.8942380  74.0134140  27.5445780
 146.5997390  72.5285300  27.5281640 153.8624040  73.2493900  30.4069740
 153.1722360  73.0566100  31.0415830 154.6056340  73.5328540  30.9394040
 144.5896040  71.0887390  21.3703080 144.3009090  71.6590250  22.0828060
 145.3341800  70.6091840  21.7334310 144.7766270  75.0307510  12.5805800
 144.6940940  75.9738270  12.7220790 144.4249330  74.8882420  11.7018150
 156.1387010  77.0892340  23.2423660 155.4068130  77.5979150  23.5913760
 155.7411350  76.2722320  22.9412440 152.5764400  73.7646540  21.6476150
 152.5800460  73.3236490  20.7980690 153.4715520  74.0863870  21.7547970
 148.4266780  73.6473030  20.6070360 148.0866830  74.1248260  21.3637410
 147.6644100  73.1938150  20.2471460 152.6384550  74.7658620  14.6382910
 152.7597370  74.7245100  15.5868730 152.2533060  75.6282770  14.4829640
 156.6012920  72.5426020  22.6546600 156.6185660  72.9934670  23.4988450
 156.3528500  71.6431660  22.8680040 151.6506050  77.0759760  14.0366210
 151.0822950  76.6278010  13.4102120 152.3595050  77.4352540  13.5031360
 160.0283670  69.9558200  28.4932980 160.3529440  69.2247860  29.0190960
 160.0640180  69.6371840  27.5913970 146.7275230  80.9771780  27.9132940
 146.3430020  80.3365450  28.5115900 147.0387420  81.6807900  28.4827670
 152.8772370  77.8248320  23.3941560 153.2442500  77.3506890  24.1402900
 152.6877430  78.6989890  23.7349900 145.7412860  72.5692010  19.5235030
 145.4559780  72.2047680  20.3613650 145.6791720  71.8372470  18.9098170
 150.6671740  76.8656960  25.7125770 150.3628810  77.7448940  25.9376130
 151.6218200  76.9256750  25.7483210 149.1953530  81.0717950  16.3092620
 148.4215790  80.5315570  16.1491340 149.9248160  80.5524560  15.9710380
 159.9541510  80.0683310  22.1019010 160.6740630  80.5638600  21.7115120
 159.7523330  79.3901200  21.4572880 155.4151450  71.4621270  16.2448400
 154.6016060  70.9634440  16.1693710 155.2213400  72.3019520  15.8284750
 155.3360310  80.1392370  27.9888010 155.2697620  79.2188040  27.7345600
 154.7065450  80.2367810  28.7032650 158.1299840  75.8340920  14.5410560
 159.0179460  76.1458150  14.3661900 158.1004930  74.9613170  14.1491140
 149.2390930  80.7398330  19.9471430 149.7569600  79.9366590  19.8928320
 148.7874950  80.6777470  20.7888260 154.1260430  82.0064610  15.2198730
 154.4676130  82.7506840  14.7242050 153.2973140  82.3195730  15.5823560
 146.7235470  77.7059700  26.8597130 146.3650410  78.3713550  27.4470470
 146.4290030  76.8743250  27.2309750 149.9248590  78.1643940  29.7436680
 149.6248730  78.3101120  28.8464500 150.6959830  77.6049230  29.6510070
 155.2677040  82.9612940  27.7391810 155.2821580  82.0293900  27.5210720
 154.5602140  83.0472700  28.3781580 160.4014110  77.1452760  14.0090420
 160.3177830  77.5766980  13.1586860 161.1208300  77.6051110  14.4417240
 161.4788250  79.6020280  27.0860390 160.7536440  80.1949060  26.8889780
 162.0063710  79.5943820  26.2873760 161.4301360  83.9995020  16.7372550
 160.7877520  83.3450640  17.0116270 161.0432020  84.4050110  15.9613220
 157.0087840  81.3280450  20.5844240 157.3611660  80.7308580  19.9245610
 156.1250170  81.0024680  20.7552490 153.0951120  82.0878140  17.9914650
 153.7822250  82.6347350  18.3722240 152.3083540  82.6318870  18.0264260
 145.2343520  77.7050960  13.4831730 146.1038370  77.9875760  13.7667650
 144.7433840  78.5186830  13.3680540 152.3978330  79.0924170  17.6040010
 152.8541110  79.9029420  17.8300200 152.0466540  78.7747310  18.4358500
 154.7010940  84.6030510  24.8332310 155.3453160  84.8089890  25.5105730
 155.0640380  83.8418910  24.3803160 148.2990110  69.4361820  18.0762530
 148.1704740  69.4279720  19.0247450 147.4752130  69.7744910  17.7253540
 155.9743020  82.6062860  23.5509760 156.6165250  81.9056020  23.6641930
 156.4992370  83.3861300  23.3706650 159.8198740  82.8911480  13.2748900
 159.5936320  82.1741920  13.8673540 159.4294940  82.6423920  12.4370650
 157.7480640  83.4057760  26.7545820 158.0836880  83.9924450  27.4323740
 156.8280980  83.2750470  26.9843610 145.6014770  86.9178340  14.0493360
 145.9612410  87.5167680  13.3950630 145.4607110  87.4638230  14.8228390
 145.2984040  71.1952940  27.5369230 144.5842560  71.3949860  28.1421840
 145.7179080  70.4192510  27.9084030 159.4014990  80.8083420  14.9363060
 159.1136690  81.2696110  15.7240940 160.1967160  80.3481190  15.2047280
 145.5856630  85.1833200  28.5235760 145.6947750  84.2427940  28.3831150
 144.9337190  85.4487950  27.8749490 153.5769220  83.4549090  29.9233880
 153.2566090  82.7358330  30.4679570 152.9027580  84.1304160  29.9969940
 151.6183390  84.3009540  14.8667030 151.6093490  85.0339230  14.2511540
 150.6981750  84.0541120  14.9593990 147.2190030  79.5224430  15.6113790
 146.6117980  80.2623330  15.6209090 147.6939380  79.6123790  14.7851990
 156.7922820  73.6875250  25.2870680 157.1603640  72.8670460  25.6150250
 155.9321020  73.7477140  25.7026330 160.1584850  72.6432190  16.0958240
 159.5298010  72.7477860  15.3816470 159.6636770  72.8628970  16.8852120
 154.6042990  84.3637780  13.5292220 154.7054970  84.1601770  12.5994200
 153.7044730  84.1096060  13.7340000 152.1268880  74.9218140  17.5116120
 151.4185030  75.3904480  17.9529730 152.4113360  74.2640150  18.1461310
 153.7524810  76.3414840  25.5108650 154.2510060  76.8160660  26.1760500
 153.8947760  75.4178360  25.7178680 156.1584310  71.6468800  18.9511910
 156.0352090  71.6654930  18.0021420 157.1068870  71.6947740  19.0710310
 153.2461100  86.8824100  18.2239890 153.5002600  86.8445490  17.3019260
 152.2973580  86.7557430  18.2168140 150.3303900  73.2303220  14.8866830
 151.1794430  73.6673370  14.8207020 149.9635170  73.5423480  15.7138890
 160.9591670  72.5582800  26.3537040 160.4565270  73.2988200  26.6930850
 161.7748330  72.9466800  26.0373830 159.2513680  77.8015980  19.7998400
 158.3103820  77.8166210  19.9746090 159.5657750  77.0151940  20.2458700
 149.2295320  79.4835580  13.3602360 149.9958590  79.3716940  13.9227790
 149.3070010  78.7873550  12.7079130 147.9242080  76.9160650  14.0435250
 148.0045670  75.9688160  14.1552650 148.8161830  77.2467530  14.1495910
 161.2539260  84.9724830  21.4752660 161.3786680  85.7956000  21.9476470
 162.1204820  84.7615560  21.1276810 148.7256790  87.0656040  21.1469790
 149.4619270  86.5171500  21.4178360 149.1097710  87.9312050  21.0075780
 145.6102270  83.1329610  17.0211300 144.6842050  83.3750750  17.0116710
 146.0758700  83.9603870  16.8996050 147.7315070  86.2502110  30.3355370
 148.5327800  86.5714160  30.7490770 147.2166890  85.8897690  31.0575280
 151.8359100  86.2386350  12.9695360 152.6287710  86.5275180  12.5177150
 151.3163450  85.8078520  12.2907840 156.5679700  82.3581980  30.2830780
 155.9617860  82.3813580  29.5426530 156.2633810  81.6265020  30.8198030
 157.9980070  86.0862270  28.8940190 158.9501820  86.0020290  28.8440430
 157.8508290  86.7503980  29.5673980 160.8889270  85.4656480  14.3932100
 160.6030780  85.0521620  13.5786280 160.6908820  86.3944190  14.2732620
 145.4512880  78.7375570  29.2791420 145.9551900  78.1582850  29.8507650
 144.7120300  79.0215800  29.8167790 152.3536500  81.4589760  12.8337710
 152.2487140  80.8442110  13.5599090 152.1860720  80.9355650  12.0500720
 152.5050820  80.1446560  28.8126940 151.7396490  80.7131560  28.7281610
 152.6866780  79.8522770  27.9195170 155.5939230  80.5209790  13.4379700
 155.0449330  80.9679090  14.0822440 156.2158490  80.0159040  13.9617370
 159.6474170  81.8751890  29.3701960 160.3883640  82.2127650  28.8669420
 158.8846850  82.0443950  28.8171730 147.4835960  76.8805160  30.1741490
 147.5241300  76.5819030  31.0826720 148.3381460  77.2812770  30.0149010
 151.2614350  79.4800710  15.3345000 151.6830770  79.3140580  16.1776390
 151.3865190  78.6700940  14.8400140 149.4241770  75.4597260  28.1415980
 148.8938230  74.9688210  27.5139320 150.0929840  75.8881460  27.6073910
 153.7741990  78.5038320  12.5822100 154.2947650  77.7887340  12.2163250
 154.4210390  79.1424190  12.8822610 158.3219830  79.9266720  27.9057170
 158.7360850  80.0811800  28.7547590 157.3870830  80.0521940  28.0682950
 158.7942000  77.2662880  29.9096320 159.3762770  76.5115200  29.8216800
 158.9703770  77.7970320  29.1327800 149.9114070  72.4259630  28.2213270
 149.8170940  71.8080380  27.4964140 149.3311460  73.1525920  27.9943180
 152.6775510  70.9832870  25.2540660 152.2292810  71.0057130  24.4086210
 152.0440710  70.5851890  25.8510960 153.0835060  79.8787200  25.8753100
 153.5023170  80.7219930  25.7029340 152.1643690  80.0159240  25.6459880
 155.4198960  77.6103380  27.2590940 155.5395170  77.0144520  27.9985780
 156.2792960  77.6473070  26.8392240 157.7586860  78.1640570  25.8353450
 157.2322080  78.6883190  25.2318590 158.1018200  78.7967960  26.4663180
 150.1573250  75.5533940  12.2803160 149.9562310  74.6901300  12.6416500
 149.9865300  75.4667300  11.3424760 150.9342480  86.1840210  26.9910830
 150.3963570  86.9086270  26.6719530 151.1876440  85.7070550  26.2008170
 152.1867730  74.1524730  28.5166760 152.7767420  73.8440580  29.2044580
 151.3687970  73.6804480  28.6726660 157.0061160  73.7690540  28.7499780
 156.3176680  73.1072080  28.6849770 157.7267180  73.3228810  29.1948240
 157.6361560  70.3642170  14.8090040 157.9163850  69.5210070  15.1649460
 156.8627290  70.5965280  15.3228790 148.9556050  72.6534560  12.2681040
 149.2581950  72.6601990  11.3600190 149.6950640  72.3032420  12.7648700
 153.7904690  87.4191420  27.2497480 153.7163390  88.3226560  27.5569850
 152.8883530  87.1003320  27.2219550 152.1740980  71.5969180  13.2537240
 151.8262980  70.9193170  12.6739690 152.3753750  71.1358690  14.0680630
 154.3390020  86.5849930  14.8723840 155.2340810  86.9234900  14.8942600
 154.3707650  85.8629340  14.2448120 147.9786180  81.9576980  13.1010840
 148.4161050  82.5006650  13.7568420 148.4633910  81.1323930  13.1107180
 145.1931980  84.7466010  20.5531100 145.5234990  83.8787070  20.3209740
 145.6222980  84.9524530  21.3836060 149.7893900  83.0775020  18.2133070
 149.4889440  82.9539990  19.1136980 149.6831390  82.2183610  17.8048800
 145.6822190  85.6136600  23.2912730 145.2453180  85.7937400  24.1236880
 146.2499870  86.3711220  23.1494450 161.3184370  85.1153600  27.5790040
 160.7186360  85.1746160  26.8353960 161.4478270  84.1758580  27.7086890
 162.5585820  82.8571420  12.9159750 161.7278780  82.9248070  13.3866980
 162.7357650  83.7475540  12.6126610 162.0142280  79.6018900  15.4193950
 162.7761190  80.1715550  15.5253640 162.0296650  79.0346100  16.1902260
 145.5146620  78.1256830  19.6501610 144.8595460  77.8568470  19.0061310
 146.3524570  78.0161310  19.2003590 163.0202250  80.4569000  20.2635880
 163.3911080  79.6736320  19.8571850 163.6604180  81.1458100  20.0853180
 160.0036010  81.8405580  25.6766200 159.1895850  82.2702740  25.9391990
 160.4110210  82.4523990  25.0635250 162.0661450  79.8953270  12.5766470
 162.3410290  80.8032150  12.4485690 161.8772190  79.8315800  13.5128460
 158.4637060  72.9198120  13.8720100 158.8821940  72.7329100  13.0316760
 158.1573120  72.0677170  14.1823030 161.9626790  77.8322260  17.5695900
 161.5870390  77.0650190  17.1377190 161.2329910  78.2144960  18.0570830
 146.5522550  78.5109400  24.1904950 146.9195590  78.4236800  25.0700970
 145.9833370  77.7475950  24.0911810 161.3526410  76.9793780  27.2035420
 161.1212500  76.7506530  26.3033370 161.6130960  77.8993330  27.1580310
 146.1038550  75.4218490  28.0963370 145.2094600  75.3885250  28.4357080
 146.6436100  75.6205280  28.8614620 159.7914480  72.2050210  29.9815120
 160.6684660  72.2133610  30.3649120 159.8035320  71.4681050  29.3707470
 144.7284700  75.3355760  15.5926940 143.8248780  75.5985960  15.4178600
 145.2125320  75.6066930  14.8126900 161.2377750  76.0579750  20.8703140
 161.7615230  75.5642400  20.2393310 161.8237170  76.1930110  21.6150710
 161.4167470  76.1419620  24.3922690 160.4670180  76.1083160  24.5067680
 161.5980480  77.0519730  24.1572460 147.2711910  74.3921300  13.5021320
 147.9803610  73.9704520  13.0168600 146.5551850  74.4596530  12.8704670
 146.9186070  70.4460630  12.5423970 147.6414200  70.9869570  12.8605190
 147.1910590  70.1724050  11.6665510 160.7277720  75.3153100  16.8095550
 161.2236840  75.0823970  17.5944430 160.5293790  74.4764940  16.3933190
 146.6078260  69.6966820  22.4446590 147.2554450  69.1464200  22.0041750
 147.0280100  69.9509970  23.2662400 162.1564880  73.9514050  19.3433230
 162.0464160  73.7970090  20.2815500 162.9172470  73.4234990  19.1008640
 160.5030600  69.8908180  25.8016230 161.1402820  70.5042320  26.1675420
 160.6505490  69.9268840  24.8565460 163.0455150  71.7821970  12.5839370
 163.9704460  71.6503150  12.3757660 163.0230940  71.8614790  13.5375820
 163.1193640  72.5532630  15.2096080 162.3245140  72.4877750  15.7388990
 163.3236920  73.4883270  15.1981430 160.0612060  86.5924180  19.2034470
 160.6571130  86.2708750  18.5268890 160.3190210  86.1196000  19.9947740
 146.3610260  69.8522490  25.1871910 146.0125080  70.3086310  25.9530090
 146.0297960  68.9579620  25.2694340 147.9674630  83.0242090  29.3525100
 147.9244260  82.6535000  30.2339560 148.0985640  83.9619660  29.4926920
 151.6680660  84.5801680  24.9534820 151.4272020  84.8476240  24.0665340
 152.6083300  84.7507410  25.0085680 153.8735080  71.0434370  28.7091330
 153.8123970  71.6356200  29.4586740 154.8135460  70.9360330  28.5641590
 156.5109640  70.7004430  28.3483620 157.1250050  71.0183720  27.6864700
 157.0559200  70.2153020  28.9679480 162.9284820  86.5996060  25.7545460
 162.4343100  86.9964930  25.0372590 162.3198110  85.9745270  26.1482740
 147.0330900  69.3798690  28.4622680 147.5813890  69.1986740  27.6988790
 147.0986210  68.5892800  28.9978990 147.8062660  85.9704340  26.4722880
 147.2122980  85.8389040  27.2112920 147.7986500  85.1342480  26.0064980
 157.2517680  69.2636570  24.6752910 156.3777520  69.5971680  24.4725840
 157.1428430  68.7909750  25.5004780 158.1589660  71.4707440  26.0594630
 157.8303020  70.6559200  25.6796360 159.1071960  71.4277250  25.9360320
 160.6124270  87.2419480  23.0332200 160.1527240  87.9935290  22.6590220
 159.9836730  86.5225950  22.9747000 147.4374890  83.3362720  25.4230920
 146.7108950  82.7168010  25.3556870 147.4984040  83.7303330  24.5529000
 151.0419990  85.5507720  22.2080330 151.5585010  84.9395080  21.6828590
 151.6917370  86.0536500  22.6991340 153.7815490  86.4416210  23.0349310
 154.0693300  86.1870510  22.1582320 154.2938710  85.8893570  23.6254880
 154.9992500  70.1806410  23.6145820 154.2164290  70.6551910  23.8942580
 154.7055430  69.2761240  23.5059000 159.5513570  70.8829510  21.6594910
 159.9921660  70.8274610  20.8116510 159.2821160  71.7987520  21.7305090
 161.4152140  70.5144750  19.6703730 161.3540540  69.5705970  19.5234750
 162.1944170  70.6224840  20.2157190 145.7204890  86.6537110  18.6327680
 145.5526930  86.0207790  19.3309570 144.8539400  86.8596510  18.2821870
 146.3432910  70.4853890  16.1359540 147.1012270  70.5982770  15.5623570
 145.8810080  71.3223090  16.0902970 152.8846720  72.5993160  19.1261850
 152.0721230  72.2250050  18.7857730 153.3888360  71.8438240  19.4283040
 157.3871700  69.2635610  20.3644920 157.9901070  69.8355820  20.8393440
 156.6464690  69.8275050  20.1418820 160.5306300  69.6657170  15.6385200
 160.7256930  70.5640620  15.9052630 159.7436170  69.4344250  16.1318150
 147.3267590  85.3470340  16.0777820 146.8015210  85.7278370  15.3739780
 147.2512170  85.9721110  16.7987530 148.7158060  71.0117940  14.6761510
 149.2450820  70.2247740  14.5469460 149.3486380  71.6909130  14.9097040
 150.9095900  70.7493080  17.7306900 150.2798640  70.0480390  17.8977030
 150.3701040  71.5097210  17.5140060 153.8487850  87.3632310  30.4017510
 154.7755160  87.1276580  30.4453470 153.8338280  88.1904310  29.9203540
 162.0832910  86.9057880  17.3991760 162.2585100  86.2195620  16.7552680
 161.3854480  87.4304930  17.0068430 151.0351460  70.0277060  30.1659390
 150.7535730  70.5310660  29.4020210 151.4171160  69.2298810  29.8001520
 149.9260560  87.2952720  14.9527070 150.6579380  87.0112000  14.4050960
 150.1854230  87.0566000  15.8426450 149.0875350  83.4117450  14.9573400
 148.4584230  83.8802550  15.5059230 149.2023180  82.5666670  15.3919590
 157.6366920  69.4430640  30.7439860 157.5232370  69.7625250  31.6391380
 158.4536660  69.8443150  30.4477140 160.4165410  86.5902170  30.2258550
 161.2090730  86.0951400  30.0184510 160.7098560  87.2692310  30.8334160
 154.6743110  79.2402130   2.9883870 153.8985210  78.7602570   3.2782440
 155.3256040  78.5607780   2.8140030 148.6908940  79.5521940   3.8659630
 147.8593820  79.2970650   4.2656140 149.2989920  79.6232710   4.6017550
 158.6950540  83.6462320   1.7683000 158.2332070  82.8749560   2.0970170
 159.5076090  83.6728390   2.2735450 148.6710200  83.5862030   4.0617650
 148.9738240  82.6959770   3.8827870 149.4153790  84.1432250   3.8339900
 145.0633900  77.1129480   3.5341720 145.6350010  76.3451680   3.5345360
 145.0635440  77.4118240   2.6248330 154.1152100  81.9159320   2.9954030
 154.0460380  80.9749260   2.8343160 154.8771960  82.0060730   3.5676600
 146.3058770  72.5213840   5.3210650 146.1261610  71.6239590   5.6013410
 145.9038850  73.0685710   5.9957600 155.1457270  74.7229700   3.2222960
 155.5222090  73.8501580   3.1096630 155.0476780  75.0588400   2.3313400
 146.9245440  75.0174340   3.9292990 147.6055550  75.2812710   4.5480390
 146.6093490  74.1775210   4.2631000 151.1170010  76.0641700   3.0165580
 151.6248230  76.5622670   3.6570600 151.6483250  75.2876900   2.8404940
 163.2180940  74.2346890   6.7194930 162.5133110  74.6228600   6.2010040
 163.4838860  74.9297180   7.3215860 149.4006110  70.7040260   7.2829000
 149.4024550  71.2212650   6.4774900 148.5710420  70.2270440   7.2598930
 150.6508960  80.3435440   5.4602500 150.3178340  80.9704360   6.1023570
 150.8275640  80.8697320   4.6804170 159.1642870  74.1580520   2.9278840
 158.4598440  74.4465410   3.5081950 159.5255030  74.9680630   2.5678400
 149.0821440  72.4150220   5.2899450 149.4238250  73.2592270   4.9953320
 148.1437250  72.5633960   5.4064790 149.8628060  82.3116240   7.2751680
 150.4802060  82.9867320   6.9936130 149.0021180  82.7204220   7.1839180
 160.7805650  83.7755650   5.1906320 160.0969170  84.4454760   5.1822990
 161.3199940  83.9736300   4.4251180 162.2329790  73.6035310   3.3188050
 161.2854700  73.6374290   3.4503480 162.5579780  74.4174260   3.7037410
 158.3164390  85.6199780   3.9051500 158.3291550  85.2162070   3.0373760
 157.7639610  86.3947070   3.8012930 157.7149830  80.5229620   5.2334110
 158.1318620  80.3089730   4.3987570 158.4389650  80.7802410   5.8042730
 161.6611930  78.9216840   5.3250350 160.8330560  78.9909930   4.8500480
 162.2562410  79.5071150   4.8566180 158.6253940  75.7086160   6.2705220
 158.2125120  76.5339870   6.5245210 157.8929890  75.1231200   6.0781580
 151.2268430  82.1813620   3.2963100 150.9296720  81.5759090   2.6170880
 152.1768250  82.2190930   3.1852460 149.4715350  75.2689270   4.9122930
 150.0229940  75.3784610   4.1376180 149.9858860  75.6426870   5.6278160
 159.3154040  85.7545490   6.9586200 158.8384600  86.5617680   6.7658810
 158.6315830  85.1023820   7.1112410 150.3186860  81.9195310   9.9470900
 149.4215390  82.1435280  10.1944300 150.3439730  82.0430250   8.9982300
 149.1458080  78.7908630   8.5228270 149.0065850  79.6631430   8.8915670
 148.2639440  78.4481440   8.3776210 150.9438430  84.7330330  10.7313420
 150.9153860  85.1373280   9.8641850 150.7803400  83.8040690  10.5685020
 162.8953250  85.5157430  12.0277590 163.3712970  85.9940320  12.7066670
 163.5160410  85.4474920  11.3023090 145.0976730  80.5606180   4.4399180
 145.1757150  80.6954950   3.4954900 145.7118410  79.8522070   4.6327300
 162.2986500  82.7070280   9.1877600 162.4249560  82.4682160   8.2694780
 162.3407880  81.8754820   9.6599680 156.1603240  86.4098280   7.7572410
 156.6747910  86.3206290   8.5594840 155.3172320  86.7557980   8.0500320
 162.1510510  74.7602740  10.1527340 161.5354780  75.2682410   9.6242800
 161.8306930  73.8601070  10.0953280 145.1536250  81.6020350   6.9793640
 145.3167290  81.1325710   6.1613010 145.6188700  81.0943910   7.6442480
 149.9255020  70.7326110   2.0154210 149.4823170  71.5135650   1.6838730
 150.4840010  71.0556000   2.7225150 154.2124830  73.5994630   7.6189530
 153.7504200  73.8077650   8.4309470 153.8102940  72.7853980   7.3160200
 159.2129340  74.8203580   8.7486190 158.3622930  74.5209330   9.0695260
 159.0531130  75.0645590   7.8370010 156.3079050  76.3205330  10.8484980
 156.6332460  75.4869080  10.5087210 157.0959380  76.8433850  10.9963310
 151.9630920  71.2773440   3.8743810 152.2603250  72.1836270   3.7935830
 152.5116480  70.7892220   3.2603380 152.1568450  76.7545260  10.4095730
 152.0612050  75.8139990  10.2596130 153.0000430  76.9760330  10.0143800
 147.2878990  73.1658930   8.5629510 146.8942380  74.0134140   8.7702290
 146.5997390  72.5285300   8.7538150 153.8624040  73.2493900  11.6326250
 153.1722360  73.0566100  12.2672340 154.6056340  73.5328540  12.1650550
 144.5896040  71.0887390   2.5959590 144.3009090  71.6590250   3.3084570
 145.3341800  70.6091840   2.9590820 156.1387010  77.0892340   4.4680170
 155.4068130  77.5979150   4.8170270 155.7411350  76.2722320   4.1668950
 152.5764400  73.7646540   2.8732660 152.5800460  73.3236490   2.0237200
 153.4715520  74.0863870   2.9804480 148.4266780  73.6473030   1.8326870
 148.0866830  74.1248260   2.5893920 147.6644100  73.1938150   1.4727970
 156.6012920  72.5426020   3.8803110 156.6185660  72.9934670   4.7244960
 156.3528500  71.6431660   4.0936550 160.0283670  69.9558200   9.7189490
 160.3529440  69.2247860  10.2447470 160.0640180  69.6371840   8.8170480
 146.7275230  80.9771780   9.1389450 146.3430020  80.3365450   9.7372410
 147.0387420  81.6807900   9.7084180 152.8772370  77.8248320   4.6198070
 153.2442500  77.3506890   5.3659410 152.6877430  78.6989890   4.9606410
 150.6671740  76.8656960   6.9382280 150.3628810  77.7448940   7.1632640
 151.6218200  76.9256750   6.9739720 159.9541510  80.0683310   3.3275520
 160.6740630  80.5638600   2.9371630 159.7523330  79.3901200   2.6829390
 155.3360310  80.1392370   9.2144520 155.2697620  79.2188040   8.9602110
 154.7065450  80.2367810   9.9289160 146.7235470  77.7059700   8.0853640
 146.3650410  78.3713550   8.6726980 146.4290030  76.8743250   8.4566260
 149.9248590  78.1643940  10.9693190 149.6248730  78.3101120  10.0721010
 150.6959830  77.6049230  10.8766580 155.2677040  82.9612940   8.9648320
 155.2821580  82.0293900   8.7467230 154.5602140  83.0472700   9.6038090
 161.4788250  79.6020280   8.3116900 160.7536440  80.1949060   8.1146290
 162.0063710  79.5943820   7.5130270 154.7010940  84.6030510   6.0588820
 155.3453160  84.8089890   6.7362240 155.0640380  83.8418910   5.6059670
 155.9743020  82.6062860   4.7766270 156.6165250  81.9056020   4.8898440
 156.4992370  83.3861300   4.5963160 157.7480640  83.4057760   7.9802330
 158.0836880  83.9924450   8.6580250 156.8280980  83.2750470   8.2100120
 145.2984040  71.1952940   8.7625740 144.5842560  71.3949860   9.3678350
 145.7179080  70.4192510   9.1340540 145.5856630  85.1833200   9.7492270
 145.6947750  84.2427940   9.6087660 144.9337190  85.4487950   9.1006000
 153.5769220  83.4549090  11.1490390 153.2566090  82.7358330  11.6936080
 152.9027580  84.1304160  11.2226450 156.7922820  73.6875250   6.5127190
 157.1603640  72.8670460   6.8406760 155.9321020  73.7477140   6.9282840
 153.7524810  76.3414840   6.7365160 154.2510060  76.8160660   7.4017010
 153.8947760  75.4178360   6.9435190 160.9591670  72.5582800   7.5793550
 160.4565270  73.2988200   7.9187360 161.7748330  72.9466800   7.2630340
 161.2539260  84.9724830   2.7009170 161.3786680  85.7956000   3.1732980
 162.1204820  84.7615560   2.3533320 148.7256790  87.0656040   2.3726300
 149.4619270  86.5171500   2.6434870 149.1097710  87.9312050   2.2332290
 147.7315070  86.2502110  11.5611880 148.5327800  86.5714160  11.9747280
 147.2166890  85.8897690  12.2831790 156.5679700  82.3581980  11.5087290
 155.9617860  82.3813580  10.7683040 156.2633810  81.6265020  12.0454540
 157.9980070  86.0862270  10.1196700 158.9501820  86.0020290  10.0696940
 157.8508290  86.7503980  10.7930490 145.4512880  78.7375570  10.5047930
 145.9551900  78.1582850  11.0764160 144.7120300  79.0215800  11.0424300
 152.5050820  80.1446560  10.0383450 151.7396490  80.7131560   9.9538120
 152.6866780  79.8522770   9.1451680 159.6474170  81.8751890  10.5958470
 160.3883640  82.2127650  10.0925930 158.8846850  82.0443950  10.0428240
 147.4835960  76.8805160  11.3998000 147.5241300  76.5819030  12.3083230
 148.3381460  77.2812770  11.2405520 149.4241770  75.4597260   9.3672490
 148.8938230  74.9688210   8.7395830 150.0929840  75.8881460   8.8330420
 158.3219830  79.9266720   9.1313680 158.7360850  80.0811800   9.9804100
 157.3870830  80.0521940   9.2939460 158.7942000  77.2662880  11.1352830
 159.3762770  76.5115200  11.0473310 158.9703770  77.7970320  10.3584310
 149.9114070  72.4259630   9.4469780 149.8170940  71.8080380   8.7220650
 149.3311460  73.1525920   9.2199690 152.6775510  70.9832870   6.4797170
 152.2292810  71.0057130   5.6342720 152.0440710  70.5851890   7.0767470
 153.0835060  79.8787200   7.1009610 153.5023170  80.7219930   6.9285850
 152.1643690  80.0159240   6.8716390 155.4198960  77.6103380   8.4847450
 155.5395170  77.0144520   9.2242290 156.2792960  77.6473070   8.0648750
 157.7586860  78.1640570   7.0609960 157.2322080  78.6883190   6.4575100
 158.1018200  78.7967960   7.6919690 150.9342480  86.1840210   8.2167340
 150.3963570  86.9086270   7.8976040 151.1876440  85.7070550   7.4264680
 152.1867730  74.1524730   9.7423270 152.7767420  73.8440580  10.4301090
 151.3687970  73.6804480   9.8983170 157.0061160  73.7690540   9.9756290
 156.3176680  73.1072080   9.9106280 157.7267180  73.3228810  10.4204750
 153.7904690  87.4191420   8.4753990 153.7163390  88.3226560   8.7826360
 152.8883530  87.1003320   8.4476060 145.1931980  84.7466010   1.7787610
 145.5234990  83.8787070   1.5466250 145.6222980  84.9524530   2.6092570
 145.6822190  85.6136600   4.5169240 145.2453180  85.7937400   5.3493390
 146.2499870  86.3711220   4.3750960 161.3184370  85.1153600   8.8046550
 160.7186360  85.1746160   8.0610470 161.4478270  84.1758580   8.9343400
 160.0036010  81.8405580   6.9022710 159.1895850  82.2702740   7.1648500
 160.4110210  82.4523990   6.2891760 146.5522550  78.5109400   5.4161460
 146.9195590  78.4236800   6.2957480 145.9833370  77.7475950   5.3168320
 161.3526410  76.9793780   8.4291930 161.1212500  76.7506530   7.5289880
 161.6130960  77.8993330   8.3836820 146.1038550  75.4218490   9.3219880
 145.2094600  75.3885250   9.6613590 146.6436100  75.6205280  10.0871130
 159.7914480  72.2050210  11.2071630 160.6684660  72.2133610  11.5905630
 159.8035320  71.4681050  10.5963980 161.2377750  76.0579750   2.0959650
 161.7615230  75.5642400   1.4649820 161.8237170  76.1930110   2.8407220
 161.4167470  76.1419620   5.6179200 160.4670180  76.1083160   5.7324190
 161.5980480  77.0519730   5.3828970 146.6078260  69.6966820   3.6703100
 147.2554450  69.1464200   3.2298260 147.0280100  69.9509970   4.4918910
 160.5030600  69.8908180   7.0272740 161.1402820  70.5042320   7.3931930
 160.6505490  69.9268840   6.0821970 146.3610260  69.8522490   6.4128420
 146.0125080  70.3086310   7.1786600 146.0297960  68.9579620   6.4950850
 147.9674630  83.0242090  10.5781610 147.9244260  82.6535000  11.4596070
 148.0985640  83.9619660  10.7183430 151.6680660  84.5801680   6.1791330
 151.4272020  84.8476240   5.2921850 152.6083300  84.7507410   6.2342190
 153.8735080  71.0434370   9.9347840 153.8123970  71.6356200  10.6843250
 154.8135460  70.9360330   9.7898100 156.5109640  70.7004430   9.5740130
 157.1250050  71.0183720   8.9121210 157.0559200  70.2153020  10.1935990
 162.9284820  86.5996060   6.9801970 162.4343100  86.9964930   6.2629100
 162.3198110  85.9745270   7.3739250 147.0330900  69.3798690   9.6879190
 147.5813890  69.1986740   8.9245300 147.0986210  68.5892800  10.2235500
 147.8062660  85.9704340   7.6979390 147.2122980  85.8389040   8.4369430
 147.7986500  85.1342480   7.2321490 157.2517680  69.2636570   5.9009420
 156.3777520  69.5971680   5.6982350 157.1428430  68.7909750   6.7261290
 158.1589660  71.4707440   7.2851140 157.8303020  70.6559200   6.9052870
 159.1071960  71.4277250   7.1616830 160.6124270  87.2419480   4.2588710
 160.1527240  87.9935290   3.8846730 159.9836730  86.5225950   4.2003510
 147.4374890  83.3362720   6.6487430 146.7108950  82.7168010   6.5813380
 147.4984040  83.7303330   5.7785510 151.0419990  85.5507720   3.4336840
 151.5585010  84.9395080   2.9085100 151.6917370  86.0536500   3.9247850
 153.7815490  86.4416210   4.2605820 154.0693300  86.1870510   3.3838830
 154.2938710  85.8893570   4.8511390 154.9992500  70.1806410   4.8402330
 154.2164290  70.6551910   5.1199090 154.7055430  69.2761240   4.7315510
 159.5513570  70.8829510   2.8851420 159.9921660  70.8274610   2.0373020
 159.2821160  71.7987520   2.9561600 153.8487850  87.3632310  11.6274020
 154.7755160  87.1276580  11.6709980 153.8338280  88.1904310  11.1460050
 151.0351460  70.0277060  11.3915900 150.7535730  70.5310660  10.6276720
 151.4171160  69.2298810  11.0258030 157.6366920  69.4430640  11.9696370
 157.5232370  69.7625250  12.8647890 158.4536660  69.8443150  11.6733650
 160.4165410  86.5902170  11.4515060 161.2090730  86.0951400  11.2441020
 160.7098560  87.2692310  12.0590670 156.5425070  58.6879620  57.4305070
 156.4619120  57.7734230  57.1596780 156.1289490  59.1846690  56.7244780
 154.6743110  60.4658640  59.3114340 153.8985210  59.9859080  59.6012910
 155.3256040  59.7864290  59.1370500 158.6950540  64.8718830  58.0913470
 158.2332070  64.1006070  58.4200640 159.5076090  64.8984900  58.5965920
 147.1000890  55.7380340  53.9732490 146.2117590  56.0796310  53.8712370
 147.3842080  55.5380660  53.0813320 145.0633900  58.3385990  59.8572190
 145.6350010  57.5708190  59.8575830 145.0635440  58.6374750  58.9478800
 154.9213850  67.1576840  57.7117460 154.3025290  67.6134340  57.1411900
 155.7765630  67.3128300  57.3107160 154.1152100  63.1415830  59.3184500
 154.0460380  62.2005770  59.1573630 154.8771960  63.2317240  59.8907070
 155.1457270  55.9486210  59.5453430 155.5222090  55.0758090  59.4327100
 155.0476780  56.2844910  58.6543870 149.2762280  54.3211840  55.0070870
 149.3829030  55.2215570  55.3139630 148.3654640  54.2729810  54.7165520
 158.9281390  53.4436650  56.4781770 159.7491010  52.9533220  56.5207250
 158.9615470  54.0334310  57.2313610 151.1170010  57.2898210  59.3396050
 151.6248230  57.7879180  59.9801070 151.6483250  56.5133410  59.1635410
 155.7877200  62.0416080  55.1049370 155.1694470  62.5065530  54.5412090
 156.3000450  62.7343560  55.5218880 159.1642870  55.3837030  59.2509310
 158.4598440  55.6721920  59.8312420 159.5255030  56.1937140  58.8908870
 145.1560400  62.7272610  52.4789000 144.7788380  63.2159710  51.7473900
 145.4133470  63.3997890  53.1095530 162.2329790  54.8291820  59.6418520
 161.2854700  54.8630800  59.7733950 162.5579780  55.6430770  60.0267880
 152.7649330  51.1289000  57.9374510 153.0724310  50.5735890  57.2210010
 151.8350030  51.2633460  57.7547500 158.3164390  66.8456290  60.2281970
 158.3291550  66.4418580  59.3604230 157.7639610  67.6203580  60.1243400
 159.6109810  63.5672510  55.3172140 159.5006140  62.6246840  55.4421560
 159.6078060  63.9288150  56.2034900 155.1530090  59.1937830  54.6734630
 154.2259370  59.1275210  54.9023100 155.3054910  60.1317960  54.5589870
 155.1399170  55.4654830  51.6701790 154.2002840  55.6268790  51.7554250
 155.4582430  56.1840510  51.1237780 159.1827380  60.7558130  55.1769880
 158.5639800  60.4177680  54.5296180 159.1651830  60.1117890  55.8849070
 150.7586730  59.7202570  57.4554360 150.3543730  59.0079820  56.9600260
 150.8449850  59.3755810  58.3442400 151.2268430  63.4070130  59.6193570
 150.9296720  62.8015600  58.9401350 152.1768250  63.4447440  59.5082930
 157.3592080  59.9944940  52.1842630 157.7985360  59.1567370  52.0380450
 158.0720500  60.6274340  52.2706770 155.4687460  64.9341010  56.1523870
 155.9083370  65.6765340  55.7379260 155.4074350  65.1767580  57.0762830
 160.9409220  51.2487750  50.4983670 160.6281880  51.3414580  51.3982740
 161.7021690  51.8268780  50.4481100 147.4591360  58.6147550  54.9561010
 147.3388960  59.3409640  54.3442280 147.1492250  57.8450460  54.4788920
 146.3424360  63.4862880  57.1735830 145.9352440  63.6277470  56.3189430
 147.2337370  63.2023040  56.9707040 158.1357640  67.9210130  53.5086880
 157.9758780  67.6313070  54.4068710 157.9704350  67.1450260  52.9732110
 150.6146020  67.7008660  55.2858500 150.4388500  66.7844200  55.0726300
 149.7601760  68.0595950  55.5256300 157.8383770  65.4297690  52.0684880
 157.1448930  65.4274980  51.4087160 158.5806630  65.0057010  51.6379050
 157.4033700  67.0560400  56.1433370 157.8590650  66.2749780  56.4571990
 157.7426220  67.7667220  56.6874550 149.9255020  51.9582620  58.3384680
 149.4823170  52.7392160  58.0069200 150.4840010  52.2812510  59.0455620
 153.0413840  51.5793320  53.2190510 152.4168020  51.5753190  53.9443820
 152.9543960  50.7124280  52.8226480 151.9630920  52.5029950  60.1974280
 152.2603250  53.4092780  60.1166300 152.5116480  52.0148730  59.5833850
 149.7169240  57.0816190  56.0665930 149.4910160  56.8653360  56.9712550
 148.9361770  57.5144650  55.7211900 156.9467000  57.0879560  54.6656580
 156.3475890  57.8115360  54.4820200 157.4946610  57.0256340  53.8833030
 155.5531870  55.7243100  56.6959860 155.9461440  56.0415300  55.8828550
 155.9148720  54.8454980  56.8104380 144.5896040  52.3143900  58.9190060
 144.3009090  52.8846760  59.6315040 145.3341800  51.8348350  59.2821290
 144.7766270  56.2564020  50.1292780 144.6940940  57.1994780  50.2707770
 144.4249330  56.1138930  49.2505130 152.5764400  54.9903050  59.1963130
 152.5800460  54.5493000  58.3467670 153.4715520  55.3120380  59.3034950
 148.4266780  54.8729540  58.1557340 148.0866830  55.3504770  58.9124390
 147.6644100  54.4194660  57.7958440 152.6384550  55.9915130  52.1869890
 152.7597370  55.9501610  53.1355710 152.2533060  56.8539280  52.0316620
 151.6506050  58.3016270  51.5853190 151.0822950  57.8534520  50.9589100
 152.3595050  58.6609050  51.0518340 145.7412860  53.7948520  57.0722010
 145.4559780  53.4304190  57.9100630 145.6791720  53.0628980  56.4585150
 149.1953530  62.2974460  53.8579600 148.4215790  61.7572080  53.6978320
 149.9248160  61.7781070  53.5197360 159.9541510  61.2939820  59.6505990
 160.6740630  61.7895110  59.2602100 159.7523330  60.6157710  59.0059860
 155.4151450  52.6877780  53.7935380 154.6016060  52.1890950  53.7180690
 155.2213400  53.5276030  53.3771730 158.1299840  57.0597430  52.0897540
 159.0179460  57.3714660  51.9148880 158.1004930  56.1869680  51.6978120
 149.2390930  61.9654840  57.4958410 149.7569600  61.1623100  57.4415300
 148.7874950  61.9033980  58.3375240 154.1260430  63.2321120  52.7685710
 154.4676130  63.9763350  52.2729030 153.2973140  63.5452240  53.1310540
 160.4014110  58.3709270  51.5577400 160.3177830  58.8023490  50.7073840
 161.1208300  58.8307620  51.9904220 161.4301360  65.2251530  54.2859530
 160.7877520  64.5707150  54.5603250 161.0432020  65.6306620  53.5100200
 157.0087840  62.5536960  58.1331220 157.3611660  61.9565090  57.4732590
 156.1250170  62.2281190  58.3039470 153.0951120  63.3134650  55.5401630
 153.7822250  63.8603860  55.9209220 152.3083540  63.8575380  55.5751240
 145.2343520  58.9307470  51.0318710 146.1038370  59.2132270  51.3154630
 144.7433840  59.7443340  50.9167520 152.3978330  60.3180680  55.1526990
 152.8541110  61.1285930  55.3787180 152.0466540  60.0003820  55.9845480
 148.2990110  50.6618330  55.6249510 148.1704740  50.6536230  56.5734430
 147.4752130  51.0001420  55.2740520 159.8198740  64.1167990  50.8235880
 159.5936320  63.3998430  51.4160520 159.4294940  63.8680430  49.9857630
 145.6014770  68.1434850  51.5980340 145.9612410  68.7424190  50.9437610
 145.4607110  68.6894740  52.3715370 159.4014990  62.0339930  52.4850040
 159.1136690  62.4952620  53.2727920 160.1967160  61.5737700  52.7534260
 151.6183390  65.5266050  52.4154010 151.6093490  66.2595740  51.7998520
 150.6981750  65.2797630  52.5080970 147.2190030  60.7480940  53.1600770
 146.6117980  61.4879840  53.1696070 147.6939380  60.8380300  52.3338970
 160.1584850  53.8688700  53.6445220 159.5298010  53.9734370  52.9303450
 159.6636770  54.0885480  54.4339100 154.6042990  65.5894290  51.0779200
 154.7054970  65.3858280  50.1481180 153.7044730  65.3352570  51.2826980
 152.1268880  56.1474650  55.0603100 151.4185030  56.6160990  55.5016710
 152.4113360  55.4896660  55.6948290 156.1584310  52.8725310  56.4998890
 156.0352090  52.8911440  55.5508400 157.1068870  52.9204250  56.6197290
 153.2461100  68.1080610  55.7726870 153.5002600  68.0702000  54.8506240
 152.2973580  67.9813940  55.7655120 150.3303900  54.4559730  52.4353810
 151.1794430  54.8929880  52.3694000 149.9635170  54.7679990  53.2625870
 159.2513680  59.0272490  57.3485380 158.3103820  59.0422720  57.5233070
 159.5657750  58.2408450  57.7945680 149.2295320  60.7092090  50.9089340
 149.9958590  60.5973450  51.4714770 149.3070010  60.0130060  50.2566110
 147.9242080  58.1417160  51.5922230 148.0045670  57.1944670  51.7039630
 148.8161830  58.4724040  51.6982890 161.2539260  66.1981340  59.0239640
 161.3786680  67.0212510  59.4963450 162.1204820  65.9872070  58.6763790
 148.7256790  68.2912550  58.6956770 149.4619270  67.7428010  58.9665340
 149.1097710  69.1568560  58.5562760 145.6102270  64.3586120  54.5698280
 144.6842050  64.6007260  54.5603690 146.0758700  65.1860380  54.4483030
 151.8359100  67.4642860  50.5182340 152.6287710  67.7531690  50.0664130
 151.3163450  67.0335030  49.8394820 160.8889270  66.6912990  51.9419080
 160.6030780  66.2778130  51.1273260 160.6908820  67.6200700  51.8219600
 152.3536500  62.6846270  50.3824690 152.2487140  62.0698620  51.1086070
 152.1860720  62.1612160  49.5987700 155.5939230  61.7466300  50.9866680
 155.0449330  62.1935600  51.6309420 156.2158490  61.2415550  51.5104350
 151.2614350  60.7057220  52.8831980 151.6830770  60.5397090  53.7263370
 151.3865190  59.8957450  52.3887120 153.7741990  59.7294830  50.1309080
 154.2947650  59.0143850  49.7650230 154.4210390  60.3680700  50.4309590
 150.1573250  56.7790450  49.8290140 149.9562310  55.9157810  50.1903480
 149.9865300  56.6923810  48.8911740 157.6361560  51.5898680  52.3577020
 157.9163850  50.7466580  52.7136440 156.8627290  51.8221790  52.8715770
 148.9556050  53.8791070  49.8168020 149.2581950  53.8858500  48.9087170
 149.6950640  53.5288930  50.3135680 152.1740980  52.8225690  50.8024220
 151.8262980  52.1449680  50.2226670 152.3753750  52.3615200  51.6167610
 154.3390020  67.8106440  52.4210820 155.2340810  68.1491410  52.4429580
 154.3707650  67.0885850  51.7935100 147.9786180  63.1833490  50.6497820
 148.4161050  63.7263160  51.3055400 148.4633910  62.3580440  50.6594160
 145.1931980  65.9722520  58.1018080 145.5234990  65.1043580  57.8696720
 145.6222980  66.1781040  58.9323040 149.7893900  64.3031530  55.7620050
 149.4889440  64.1796500  56.6623960 149.6831390  63.4440120  55.3535780
 162.5585820  64.0827930  50.4646730 161.7278780  64.1504580  50.9353960
 162.7357650  64.9732050  50.1613590 162.0142280  60.8275410  52.9680930
 162.7761190  61.3972060  53.0740620 162.0296650  60.2602610  53.7389240
 145.5146620  59.3513340  57.1988590 144.8595460  59.0824980  56.5548290
 146.3524570  59.2417820  56.7490570 163.0202250  61.6825510  57.8122860
 163.3911080  60.8992830  57.4058830 163.6604180  62.3714610  57.6340160
 162.0661450  61.1209780  50.1253450 162.3410290  62.0288660  49.9972670
 161.8772190  61.0572310  51.0615440 158.4637060  54.1454630  51.4207080
 158.8821940  53.9585610  50.5803740 158.1573120  53.2933680  51.7310010
 161.9626790  59.0578770  55.1182880 161.5870390  58.2906700  54.6864170
 161.2329910  59.4401470  55.6057810 144.7284700  56.5612270  53.1413920
 143.8248780  56.8242470  52.9665580 145.2125320  56.8323440  52.3613880
 161.2377750  57.2836260  58.4190120 161.7615230  56.7898910  57.7880290
 161.8237170  57.4186620  59.1637690 147.2711910  55.6177810  51.0508300
 147.9803610  55.1961030  50.5655580 146.5551850  55.6853040  50.4191650
 146.9186070  51.6717140  50.0910950 147.6414200  52.2126080  50.4092170
 147.1910590  51.3980560  49.2152490 160.7277720  56.5409610  54.3582530
 161.2236840  56.3080480  55.1431410 160.5293790  55.7021450  53.9420170
 162.1564880  55.1770560  56.8920210 162.0464160  55.0226600  57.8302480
 162.9172470  54.6491500  56.6495620 163.0455150  53.0078480  50.1326350
 163.9704460  52.8759660  49.9244640 163.0230940  53.0871300  51.0862800
 163.1193640  53.7789140  52.7583060 162.3245140  53.7134260  53.2875970
 163.3236920  54.7139780  52.7468410 160.0612060  67.8180690  56.7521450
 160.6571130  67.4965260  56.0755870 160.3190210  67.3452510  57.5434720
 151.0419990  66.7764230  59.7567310 151.5585010  66.1651590  59.2315570
 151.6917370  67.2793010  60.2478320 159.5513570  52.1086020  59.2081890
 159.9921660  52.0531120  58.3603490 159.2821160  53.0244030  59.2792070
 161.4152140  51.7401260  57.2190710 161.3540540  50.7962480  57.0721730
 162.1944170  51.8481350  57.7644170 145.7204890  67.8793620  56.1814660
 145.5526930  67.2464300  56.8796550 144.8539400  68.0853020  55.8308850
 146.3432910  51.7110400  53.6846520 147.1012270  51.8239280  53.1110550
 145.8810080  52.5479600  53.6389950 152.8846720  53.8249670  56.6748830
 152.0721230  53.4506560  56.3344710 153.3888360  53.0694750  56.9770020
 157.3871700  50.4892120  57.9131900 157.9901070  51.0612330  58.3880420
 156.6464690  51.0531560  57.6905800 160.5306300  50.8913680  53.1872180
 160.7256930  51.7897130  53.4539610 159.7436170  50.6600760  53.6805130
 147.3267590  66.5726850  53.6264800 146.8015210  66.9534880  52.9226760
 147.2512170  67.1977620  54.3474510 148.7158060  52.2374450  52.2248490
 149.2450820  51.4504250  52.0956440 149.3486380  52.9165640  52.4584020
 150.9095900  51.9749590  55.2793880 150.2798640  51.2736900  55.4464010
 150.3701040  52.7353720  55.0627040 162.0832910  68.1314390  54.9478740
 162.2585100  67.4452130  54.3039660 161.3854480  68.6561440  54.5555410
 149.9260560  68.5209230  52.5014050 150.6579380  68.2368510  51.9537940
 150.1854230  68.2822510  53.3913430 149.0875350  64.6373960  52.5060380
 148.4584230  65.1059060  53.0546210 149.2023180  63.7923180  52.9406570
 156.5425070  58.6879620  38.6561580 156.4619120  57.7734230  38.3853290
 156.1289490  59.1846690  37.9501290 154.6743110  60.4658640  40.5370850
 153.8985210  59.9859080  40.8269420 155.3256040  59.7864290  40.3627010
 148.6908940  60.7778450  41.4146610 147.8593820  60.5227160  41.8143120
 149.2989920  60.8489220  42.1504530 158.6950540  64.8718830  39.3169980
 158.2332070  64.1006070  39.6457150 159.5076090  64.8984900  39.8222430
 148.6710200  64.8118540  41.6104630 148.9738240  63.9216280  41.4314850
 149.4153790  65.3688760  41.3826880 147.1000890  55.7380340  35.1989000
 146.2117590  56.0796310  35.0968880 147.3842080  55.5380660  34.3069830
 145.0633900  58.3385990  41.0828700 145.6350010  57.5708190  41.0832340
 145.0635440  58.6374750  40.1735310 154.9213850  67.1576840  38.9373970
 154.3025290  67.6134340  38.3668410 155.7765630  67.3128300  38.5363670
 154.1152100  63.1415830  40.5441010 154.0460380  62.2005770  40.3830140
 154.8771960  63.2317240  41.1163580 146.3058770  53.7470350  42.8697630
 146.1261610  52.8496100  43.1500390 145.9038850  54.2942220  43.5444580
 155.1457270  55.9486210  40.7709940 155.5222090  55.0758090  40.6583610
 155.0476780  56.2844910  39.8800380 149.2762280  54.3211840  36.2327380
 149.3829030  55.2215570  36.5396140 148.3654640  54.2729810  35.9422030
 158.9281390  53.4436650  37.7038280 159.7491010  52.9533220  37.7463760
 158.9615470  54.0334310  38.4570120 146.9245440  56.2430850  41.4779970
 147.6055550  56.5069220  42.0967370 146.6093490  55.4031720  41.8117980
 151.1170010  57.2898210  40.5652560 151.6248230  57.7879180  41.2057580
 151.6483250  56.5133410  40.3891920 163.2180940  55.4603400  44.2681910
 162.5133110  55.8485110  43.7497020 163.4838860  56.1553690  44.8702840
 149.4006110  51.9296770  44.8315980 149.4024550  52.4469160  44.0261880
 148.5710420  51.4526950  44.8085910 155.7877200  62.0416080  36.3305880
 155.1694470  62.5065530  35.7668600 156.3000450  62.7343560  36.7475390
 150.6508960  61.5691950  43.0089480 150.3178340  62.1960870  43.6510550
 150.8275640  62.0953830  42.2291150 159.1642870  55.3837030  40.4765820
 158.4598440  55.6721920  41.0568930 159.5255030  56.1937140  40.1165380
 149.0821440  53.6406730  42.8386430 149.4238250  54.4848780  42.5440300
 148.1437250  53.7890470  42.9551770 149.8628060  63.5372750  44.8238660
 150.4802060  64.2123830  44.5423110 149.0021180  63.9460730  44.7326160
 145.1560400  62.7272610  33.7045510 144.7788380  63.2159710  32.9730410
 145.4133470  63.3997890  34.3352040 160.7805650  65.0012160  42.7393300
 160.0969170  65.6711270  42.7309970 161.3199940  65.1992810  41.9738160
 162.2329790  54.8291820  40.8675030 161.2854700  54.8630800  40.9990460
 162.5579780  55.6430770  41.2524390 152.7649330  51.1289000  39.1631020
 153.0724310  50.5735890  38.4466520 151.8350030  51.2633460  38.9804010
 158.3164390  66.8456290  41.4538480 158.3291550  66.4418580  40.5860740
 157.7639610  67.6203580  41.3499910 159.6109810  63.5672510  36.5428650
 159.5006140  62.6246840  36.6678070 159.6078060  63.9288150  37.4291410
 157.7149830  61.7486130  42.7821090 158.1318620  61.5346240  41.9474550
 158.4389650  62.0058920  43.3529710 155.1530090  59.1937830  35.8991140
 154.2259370  59.1275210  36.1279610 155.3054910  60.1317960  35.7846380
 155.1399170  55.4654830  32.8958300 154.2002840  55.6268790  32.9810760
 155.4582430  56.1840510  32.3494290 161.6611930  60.1473350  42.8737330
 160.8330560  60.2166440  42.3987460 162.2562410  60.7327660  42.4053160
 159.1827380  60.7558130  36.4026390 158.5639800  60.4177680  35.7552690
 159.1651830  60.1117890  37.1105580 158.6253940  56.9342670  43.8192200
 158.2125120  57.7596380  44.0732190 157.8929890  56.3487710  43.6268560
 150.7586730  59.7202570  38.6810870 150.3543730  59.0079820  38.1856770
 150.8449850  59.3755810  39.5698910 151.2268430  63.4070130  40.8450080
 150.9296720  62.8015600  40.1657860 152.1768250  63.4447440  40.7339440
 149.4715350  56.4945780  42.4609910 150.0229940  56.6041120  41.6863160
 149.9858860  56.8683380  43.1765140 159.3154040  66.9802000  44.5073180
 158.8384600  67.7874190  44.3145790 158.6315830  66.3280330  44.6599390
 150.3186860  63.1451820  47.4957880 149.4215390  63.3691790  47.7431280
 150.3439730  63.2686760  46.5469280 157.3592080  59.9944940  33.4099140
 157.7985360  59.1567370  33.2636960 158.0720500  60.6274340  33.4963280
 149.1458080  60.0165140  46.0715250 149.0065850  60.8887940  46.4402650
 148.2639440  59.6737950  45.9263190 155.4687460  64.9341010  37.3780380
 155.9083370  65.6765340  36.9635770 155.4074350  65.1767580  38.3019340
 150.9438430  65.9586840  48.2800400 150.9153860  66.3629790  47.4128830
 150.7803400  65.0297200  48.1172000 160.9409220  51.2487750  31.7240180
 160.6281880  51.3414580  32.6239250 161.7021690  51.8268780  31.6737610
 147.4591360  58.6147550  36.1817520 147.3388960  59.3409640  35.5698790
 147.1492250  57.8450460  35.7045430 162.8953250  66.7413940  49.5764570
 163.3712970  67.2196830  50.2553650 163.5160410  66.6731430  48.8510070
 145.0976730  61.7862690  41.9886160 145.1757150  61.9211460  41.0441880
 145.7118410  61.0778580  42.1814280 146.3424360  63.4862880  38.3992340
 145.9352440  63.6277470  37.5445940 147.2337370  63.2023040  38.1963550
 162.2986500  63.9326790  46.7364580 162.4249560  63.6938670  45.8181760
 162.3407880  63.1011330  47.2086660 156.1603240  67.6354790  45.3059390
 156.6747910  67.5462800  46.1081820 155.3172320  67.9814490  45.5987300
 158.1357640  67.9210130  34.7343390 157.9758780  67.6313070  35.6325220
 157.9704350  67.1450260  34.1988620 150.6146020  67.7008660  36.5115010
 150.4388500  66.7844200  36.2982810 149.7601760  68.0595950  36.7512810
 157.8383770  65.4297690  33.2941390 157.1448930  65.4274980  32.6343670
 158.5806630  65.0057010  32.8635560 157.4033700  67.0560400  37.3689880
 157.8590650  66.2749780  37.6828500 157.7426220  67.7667220  37.9131060
 162.1510510  55.9859250  47.7014320 161.5354780  56.4938920  47.1729780
 161.8306930  55.0857580  47.6440260 145.1536250  62.8276860  44.5280620
 145.3167290  62.3582220  43.7099990 145.6188700  62.3200420  45.1929460
 149.9255020  51.9582620  39.5641190 149.4823170  52.7392160  39.2325710
 150.4840010  52.2812510  40.2712130 154.2124830  54.8251140  45.1676510
 153.7504200  55.0334160  45.9796450 153.8102940  54.0110490  44.8647180
 159.2129340  56.0460090  46.2973170 158.3622930  55.7465840  46.6182240
 159.0531130  56.2902100  45.3856990 156.3079050  57.5461840  48.3971960
 156.6332460  56.7125590  48.0574190 157.0959380  58.0690360  48.5450290
 153.0413840  51.5793320  34.4447020 152.4168020  51.5753190  35.1700330
 152.9543960  50.7124280  34.0482990 151.9630920  52.5029950  41.4230790
 152.2603250  53.4092780  41.3422810 152.5116480  52.0148730  40.8090360
 149.7169240  57.0816190  37.2922440 149.4910160  56.8653360  38.1969060
 148.9361770  57.5144650  36.9468410 156.9467000  57.0879560  35.8913090
 156.3475890  57.8115360  35.7076710 157.4946610  57.0256340  35.1089540
 152.1568450  57.9801770  47.9582710 152.0612050  57.0396500  47.8083110
 153.0000430  58.2016840  47.5630780 155.5531870  55.7243100  37.9216370
 155.9461440  56.0415300  37.1085060 155.9148720  54.8454980  38.0360890
 147.2878990  54.3915440  46.1116490 146.8942380  55.2390650  46.3189270
 146.5997390  53.7541810  46.3025130 153.8624040  54.4750410  49.1813230
 153.1722360  54.2822610  49.8159320 154.6056340  54.7585050  49.7137530
 144.5896040  52.3143900  40.1446570 144.3009090  52.8846760  40.8571550
 145.3341800  51.8348350  40.5077800 144.7766270  56.2564020  31.3549290
 144.6940940  57.1994780  31.4964280 144.4249330  56.1138930  30.4761640
 156.1387010  58.3148850  42.0167150 155.4068130  58.8235660  42.3657250
 155.7411350  57.4978830  41.7155930 152.5764400  54.9903050  40.4219640
 152.5800460  54.5493000  39.5724180 153.4715520  55.3120380  40.5291460
 148.4266780  54.8729540  39.3813850 148.0866830  55.3504770  40.1380900
 147.6644100  54.4194660  39.0214950 152.6384550  55.9915130  33.4126400
 152.7597370  55.9501610  34.3612220 152.2533060  56.8539280  33.2573130
 156.6012920  53.7682530  41.4290090 156.6185660  54.2191180  42.2731940
 156.3528500  52.8688170  41.6423530 151.6506050  58.3016270  32.8109700
 151.0822950  57.8534520  32.1845610 152.3595050  58.6609050  32.2774850
 160.0283670  51.1814710  47.2676470 160.3529440  50.4504370  47.7934450
 160.0640180  50.8628350  46.3657460 146.7275230  62.2028290  46.6876430
 146.3430020  61.5621960  47.2859390 147.0387420  62.9064410  47.2571160
 152.8772370  59.0504830  42.1685050 153.2442500  58.5763400  42.9146390
 152.6877430  59.9246400  42.5093390 145.7412860  53.7948520  38.2978520
 145.4559780  53.4304190  39.1357140 145.6791720  53.0628980  37.6841660
 150.6671740  58.0913470  44.4869260 150.3628810  58.9705450  44.7119620
 151.6218200  58.1513260  44.5226700 149.1953530  62.2974460  35.0836110
 148.4215790  61.7572080  34.9234830 149.9248160  61.7781070  34.7453870
 159.9541510  61.2939820  40.8762500 160.6740630  61.7895110  40.4858610
 159.7523330  60.6157710  40.2316370 155.3360310  61.3648880  46.7631500
 155.2697620  60.4444550  46.5089090 154.7065450  61.4624320  47.4776140
 158.1299840  57.0597430  33.3154050 159.0179460  57.3714660  33.1405390
 158.1004930  56.1869680  32.9234630 149.2390930  61.9654840  38.7214920
 149.7569600  61.1623100  38.6671810 148.7874950  61.9033980  39.5631750
 154.1260430  63.2321120  33.9942220 154.4676130  63.9763350  33.4985540
 153.2973140  63.5452240  34.3567050 146.7235470  58.9316210  45.6340620
 146.3650410  59.5970060  46.2213960 146.4290030  58.0999760  46.0053240
 149.9248590  59.3900450  48.5180170 149.6248730  59.5357630  47.6207990
 150.6959830  58.8305740  48.4253560 155.2677040  64.1869450  46.5135300
 155.2821580  63.2550410  46.2954210 154.5602140  64.2729210  47.1525070
 160.4014110  58.3709270  32.7833910 160.3177830  58.8023490  31.9330350
 161.1208300  58.8307620  33.2160730 161.4788250  60.8276790  45.8603880
 160.7536440  61.4205570  45.6633270 162.0063710  60.8200330  45.0617250
 161.4301360  65.2251530  35.5116040 160.7877520  64.5707150  35.7859760
 161.0432020  65.6306620  34.7356710 157.0087840  62.5536960  39.3587730
 157.3611660  61.9565090  38.6989100 156.1250170  62.2281190  39.5295980
 153.0951120  63.3134650  36.7658140 153.7822250  63.8603860  37.1465730
 152.3083540  63.8575380  36.8007750 145.2343520  58.9307470  32.2575220
 146.1038370  59.2132270  32.5411140 144.7433840  59.7443340  32.1424030
 152.3978330  60.3180680  36.3783500 152.8541110  61.1285930  36.6043690
 152.0466540  60.0003820  37.2101990 154.7010940  65.8287020  43.6075800
 155.3453160  66.0346400  44.2849220 155.0640380  65.0675420  43.1546650
 148.2990110  50.6618330  36.8506020 148.1704740  50.6536230  37.7990940
 147.4752130  51.0001420  36.4997030 155.9743020  63.8319370  42.3253250
 156.6165250  63.1312530  42.4385420 156.4992370  64.6117810  42.1450140
 159.8198740  64.1167990  32.0492390 159.5936320  63.3998430  32.6417030
 159.4294940  63.8680430  31.2114140 157.7480640  64.6314270  45.5289310
 158.0836880  65.2180960  46.2067230 156.8280980  64.5006980  45.7587100
 145.6014770  68.1434850  32.8236850 145.9612410  68.7424190  32.1694120
 145.4607110  68.6894740  33.5971880 145.2984040  52.4209450  46.3112720
 144.5842560  52.6206370  46.9165330 145.7179080  51.6449020  46.6827520
 159.4014990  62.0339930  33.7106550 159.1136690  62.4952620  34.4984430
 160.1967160  61.5737700  33.9790770 145.5856630  66.4089710  47.2979250
 145.6947750  65.4684450  47.1574640 144.9337190  66.6744460  46.6492980
 153.5769220  64.6805600  48.6977370 153.2566090  63.9614840  49.2423060
 152.9027580  65.3560670  48.7713430 151.6183390  65.5266050  33.6410520
 151.6093490  66.2595740  33.0255030 150.6981750  65.2797630  33.7337480
 147.2190030  60.7480940  34.3857280 146.6117980  61.4879840  34.3952580
 147.6939380  60.8380300  33.5595480 156.7922820  54.9131760  44.0614170
 157.1603640  54.0926970  44.3893740 155.9321020  54.9733650  44.4769820
 160.1584850  53.8688700  34.8701730 159.5298010  53.9734370  34.1559960
 159.6636770  54.0885480  35.6595610 154.6042990  65.5894290  32.3035710
 154.7054970  65.3858280  31.3737690 153.7044730  65.3352570  32.5083490
 152.1268880  56.1474650  36.2859610 151.4185030  56.6160990  36.7273220
 152.4113360  55.4896660  36.9204800 153.7524810  57.5671350  44.2852140
 154.2510060  58.0417170  44.9503990 153.8947760  56.6434870  44.4922170
 156.1584310  52.8725310  37.7255400 156.0352090  52.8911440  36.7764910
 157.1068870  52.9204250  37.8453800 153.2461100  68.1080610  36.9983380
 153.5002600  68.0702000  36.0762750 152.2973580  67.9813940  36.9911630
 150.3303900  54.4559730  33.6610320 151.1794430  54.8929880  33.5950510
 149.9635170  54.7679990  34.4882380 160.9591670  53.7839310  45.1280530
 160.4565270  54.5244710  45.4674340 161.7748330  54.1723310  44.8117320
 159.2513680  59.0272490  38.5741890 158.3103820  59.0422720  38.7489580
 159.5657750  58.2408450  39.0202190 149.2295320  60.7092090  32.1345850
 149.9958590  60.5973450  32.6971280 149.3070010  60.0130060  31.4822620
 147.9242080  58.1417160  32.8178740 148.0045670  57.1944670  32.9296140
 148.8161830  58.4724040  32.9239400 161.2539260  66.1981340  40.2496150
 161.3786680  67.0212510  40.7219960 162.1204820  65.9872070  39.9020300
 148.7256790  68.2912550  39.9213280 149.4619270  67.7428010  40.1921850
 149.1097710  69.1568560  39.7819270 145.6102270  64.3586120  35.7954790
 144.6842050  64.6007260  35.7860200 146.0758700  65.1860380  35.6739540
 147.7315070  67.4758620  49.1098860 148.5327800  67.7970670  49.5234260
 147.2166890  67.1154200  49.8318770 151.8359100  67.4642860  31.7438850
 152.6287710  67.7531690  31.2920640 151.3163450  67.0335030  31.0651330
 156.5679700  63.5838490  49.0574270 155.9617860  63.6070090  48.3170020
 156.2633810  62.8521530  49.5941520 157.9980070  67.3118780  47.6683680
 158.9501820  67.2276800  47.6183920 157.8508290  67.9760490  48.3417470
 160.8889270  66.6912990  33.1675590 160.6030780  66.2778130  32.3529770
 160.6908820  67.6200700  33.0476110 145.4512880  59.9632080  48.0534910
 145.9551900  59.3839360  48.6251140 144.7120300  60.2472310  48.5911280
 152.3536500  62.6846270  31.6081200 152.2487140  62.0698620  32.3342580
 152.1860720  62.1612160  30.8244210 152.5050820  61.3703070  47.5870430
 151.7396490  61.9388070  47.5025100 152.6866780  61.0779280  46.6938660
 155.5939230  61.7466300  32.2123190 155.0449330  62.1935600  32.8565930
 156.2158490  61.2415550  32.7360860 159.6474170  63.1008400  48.1445450
 160.3883640  63.4384160  47.6412910 158.8846850  63.2700460  47.5915220
 147.4835960  58.1061670  48.9484980 147.5241300  57.8075540  49.8570210
 148.3381460  58.5069280  48.7892500 151.2614350  60.7057220  34.1088490
 151.6830770  60.5397090  34.9519880 151.3865190  59.8957450  33.6143630
 149.4241770  56.6853770  46.9159470 148.8938230  56.1944720  46.2882810
 150.0929840  57.1137970  46.3817400 153.7741990  59.7294830  31.3565590
 154.2947650  59.0143850  30.9906740 154.4210390  60.3680700  31.6566100
 158.3219830  61.1523230  46.6800660 158.7360850  61.3068310  47.5291080
 157.3870830  61.2778450  46.8426440 158.7942000  58.4919390  48.6839810
 159.3762770  57.7371710  48.5960290 158.9703770  59.0226830  47.9071290
 149.9114070  53.6516140  46.9956760 149.8170940  53.0336890  46.2707630
 149.3311460  54.3782430  46.7686670 152.6775510  52.2089380  44.0284150
 152.2292810  52.2313640  43.1829700 152.0440710  51.8108400  44.6254450
 153.0835060  61.1043710  44.6496590 153.5023170  61.9476440  44.4772830
 152.1643690  61.2415750  44.4203370 155.4198960  58.8359890  46.0334430
 155.5395170  58.2401030  46.7729270 156.2792960  58.8729580  45.6135730
 157.7586860  59.3897080  44.6096940 157.2322080  59.9139700  44.0062080
 158.1018200  60.0224470  45.2406670 150.1573250  56.7790450  31.0546650
 149.9562310  55.9157810  31.4159990 149.9865300  56.6923810  30.1168250
 150.9342480  67.4096720  45.7654320 150.3963570  68.1342780  45.4463020
 151.1876440  66.9327060  44.9751660 152.1867730  55.3781240  47.2910250
 152.7767420  55.0697090  47.9788070 151.3687970  54.9060990  47.4470150
 157.0061160  54.9947050  47.5243270 156.3176680  54.3328590  47.4593260
 157.7267180  54.5485320  47.9691730 157.6361560  51.5898680  33.5833530
 157.9163850  50.7466580  33.9392950 156.8627290  51.8221790  34.0972280
 148.9556050  53.8791070  31.0424530 149.2581950  53.8858500  30.1343680
 149.6950640  53.5288930  31.5392190 152.1740980  52.8225690  32.0280730
 151.8262980  52.1449680  31.4483180 152.3753750  52.3615200  32.8424120
 154.3390020  67.8106440  33.6467330 155.2340810  68.1491410  33.6686090
 154.3707650  67.0885850  33.0191610 147.9786180  63.1833490  31.8754330
 148.4161050  63.7263160  32.5311910 148.4633910  62.3580440  31.8850670
 145.1931980  65.9722520  39.3274590 145.5234990  65.1043580  39.0953230
 145.6222980  66.1781040  40.1579550 149.7893900  64.3031530  36.9876560
 149.4889440  64.1796500  37.8880470 149.6831390  63.4440120  36.5792290
 145.6822190  66.8393110  42.0656220 145.2453180  67.0193910  42.8980370
 146.2499870  67.5967730  41.9237940 161.3184370  66.3410110  46.3533530
 160.7186360  66.4002670  45.6097450 161.4478270  65.4015090  46.4830380
 162.5585820  64.0827930  31.6903240 161.7278780  64.1504580  32.1610470
 162.7357650  64.9732050  31.3870100 162.0142280  60.8275410  34.1937440
 162.7761190  61.3972060  34.2997130 162.0296650  60.2602610  34.9645750
 145.5146620  59.3513340  38.4245100 144.8595460  59.0824980  37.7804800
 146.3524570  59.2417820  37.9747080 163.0202250  61.6825510  39.0379370
 163.3911080  60.8992830  38.6315340 163.6604180  62.3714610  38.8596670
 160.0036010  63.0662090  44.4509690 159.1895850  63.4959250  44.7135480
 160.4110210  63.6780500  43.8378740 162.0661450  61.1209780  31.3509960
 162.3410290  62.0288660  31.2229180 161.8772190  61.0572310  32.2871950
 158.4637060  54.1454630  32.6463590 158.8821940  53.9585610  31.8060250
 158.1573120  53.2933680  32.9566520 161.9626790  59.0578770  36.3439390
 161.5870390  58.2906700  35.9120680 161.2329910  59.4401470  36.8314320
 146.5522550  59.7365910  42.9648440 146.9195590  59.6493310  43.8444460
 145.9833370  58.9732460  42.8655300 161.3526410  58.2050290  45.9778910
 161.1212500  57.9763040  45.0776860 161.6130960  59.1249840  45.9323800
 146.1038550  56.6475000  46.8706860 145.2094600  56.6141760  47.2100570
 146.6436100  56.8461790  47.6358110 159.7914480  53.4306720  48.7558610
 160.6684660  53.4390120  49.1392610 159.8035320  52.6937560  48.1450960
 144.7284700  56.5612270  34.3670430 143.8248780  56.8242470  34.1922090
 145.2125320  56.8323440  33.5870390 161.2377750  57.2836260  39.6446630
 161.7615230  56.7898910  39.0136800 161.8237170  57.4186620  40.3894200
 161.4167470  57.3676130  43.1666180 160.4670180  57.3339670  43.2811170
 161.5980480  58.2776240  42.9315950 147.2711910  55.6177810  32.2764810
 147.9803610  55.1961030  31.7912090 146.5551850  55.6853040  31.6448160
 146.9186070  51.6717140  31.3167460 147.6414200  52.2126080  31.6348680
 147.1910590  51.3980560  30.4409000 160.7277720  56.5409610  35.5839040
 161.2236840  56.3080480  36.3687920 160.5293790  55.7021450  35.1676680
 146.6078260  50.9223330  41.2190080 147.2554450  50.3720710  40.7785240
 147.0280100  51.1766480  42.0405890 162.1564880  55.1770560  38.1176720
 162.0464160  55.0226600  39.0558990 162.9172470  54.6491500  37.8752130
 160.5030600  51.1164690  44.5759720 161.1402820  51.7298830  44.9418910
 160.6505490  51.1525350  43.6308950 163.0455150  53.0078480  31.3582860
 163.9704460  52.8759660  31.1501150 163.0230940  53.0871300  32.3119310
 163.1193640  53.7789140  33.9839570 162.3245140  53.7134260  34.5132480
 163.3236920  54.7139780  33.9724920 160.0612060  67.8180690  37.9777960
 160.6571130  67.4965260  37.3012380 160.3190210  67.3452510  38.7691230
 146.3610260  51.0779000  43.9615400 146.0125080  51.5342820  44.7273580
 146.0297960  50.1836130  44.0437830 147.9674630  64.2498600  48.1268590
 147.9244260  63.8791510  49.0083050 148.0985640  65.1876170  48.2670410
 151.6680660  65.8058190  43.7278310 151.4272020  66.0732750  42.8408830
 152.6083300  65.9763920  43.7829170 153.8735080  52.2690880  47.4834820
 153.8123970  52.8612710  48.2330230 154.8135460  52.1616840  47.3385080
 156.5109640  51.9260940  47.1227110 157.1250050  52.2440230  46.4608190
 157.0559200  51.4409530  47.7422970 162.9284820  67.8252570  44.5288950
 162.4343100  68.2221440  43.8116080 162.3198110  67.2001780  44.9226230
 147.0330900  50.6055200  47.2366170 147.5813890  50.4243250  46.4732280
 147.0986210  49.8149310  47.7722480 147.8062660  67.1960850  45.2466370
 147.2122980  67.0645550  45.9856410 147.7986500  66.3598990  44.7808470
 157.2517680  50.4893080  43.4496400 156.3777520  50.8228190  43.2469330
 157.1428430  50.0166260  44.2748270 158.1589660  52.6963950  44.8338120
 157.8303020  51.8815710  44.4539850 159.1071960  52.6533760  44.7103810
 160.6124270  68.4675990  41.8075690 160.1527240  69.2191800  41.4333710
 159.9836730  67.7482460  41.7490490 147.4374890  64.5619230  44.1974410
 146.7108950  63.9424520  44.1300360 147.4984040  64.9559840  43.3272490
 151.0419990  66.7764230  40.9823820 151.5585010  66.1651590  40.4572080
 151.6917370  67.2793010  41.4734830 153.7815490  67.6672720  41.8092800
 154.0693300  67.4127020  40.9325810 154.2938710  67.1150080  42.3998370
 154.9992500  51.4062920  42.3889310 154.2164290  51.8808420  42.6686070
 154.7055430  50.5017750  42.2802490 159.5513570  52.1086020  40.4338400
 159.9921660  52.0531120  39.5860000 159.2821160  53.0244030  40.5048580
 161.4152140  51.7401260  38.4447220 161.3540540  50.7962480  38.2978240
 162.1944170  51.8481350  38.9900680 145.7204890  67.8793620  37.4071170
 145.5526930  67.2464300  38.1053060 144.8539400  68.0853020  37.0565360
 146.3432910  51.7110400  34.9103030 147.1012270  51.8239280  34.3367060
 145.8810080  52.5479600  34.8646460 152.8846720  53.8249670  37.9005340
 152.0721230  53.4506560  37.5601220 153.3888360  53.0694750  38.2026530
 157.3871700  50.4892120  39.1388410 157.9901070  51.0612330  39.6136930
 156.6464690  51.0531560  38.9162310 160.5306300  50.8913680  34.4128690
 160.7256930  51.7897130  34.6796120 159.7436170  50.6600760  34.9061640
 147.3267590  66.5726850  34.8521310 146.8015210  66.9534880  34.1483270
 147.2512170  67.1977620  35.5731020 148.7158060  52.2374450  33.4505000
 149.2450820  51.4504250  33.3212950 149.3486380  52.9165640  33.6840530
 150.9095900  51.9749590  36.5050390 150.2798640  51.2736900  36.6720520
 150.3701040  52.7353720  36.2883550 153.8487850  68.5888820  49.1761000
 154.7755160  68.3533090  49.2196960 153.8338280  69.4160820  48.6947030
 162.0832910  68.1314390  36.1735250 162.2585100  67.4452130  35.5296170
 161.3854480  68.6561440  35.7811920 151.0351460  51.2533570  48.9402880
 150.7535730  51.7567170  48.1763700 151.4171160  50.4555320  48.5745010
 149.9260560  68.5209230  33.7270560 150.6579380  68.2368510  33.1794450
 150.1854230  68.2822510  34.6169940 149.0875350  64.6373960  33.7316890
 148.4584230  65.1059060  34.2802720 149.2023180  63.7923180  34.1663080
 157.6366920  50.6687150  49.5183350 157.5232370  50.9881760  50.4134870
 158.4536660  51.0699660  49.2220630 160.4165410  67.8158680  49.0002040
 161.2090730  67.3207910  48.7928000 160.7098560  68.4948820  49.6077650
 156.5425070  58.6879620  19.8818090 156.4619120  57.7734230  19.6109800
 156.1289490  59.1846690  19.1757800 154.6743110  60.4658640  21.7627360
 153.8985210  59.9859080  22.0525930 155.3256040  59.7864290  21.5883520
 148.6908940  60.7778450  22.6403120 147.8593820  60.5227160  23.0399630
 149.2989920  60.8489220  23.3761040 158.6950540  64.8718830  20.5426490
 158.2332070  64.1006070  20.8713660 159.5076090  64.8984900  21.0478940
 148.6710200  64.8118540  22.8361140 148.9738240  63.9216280  22.6571360
 149.4153790  65.3688760  22.6083390 147.1000890  55.7380340  16.4245510
 146.2117590  56.0796310  16.3225390 147.3842080  55.5380660  15.5326340
 145.0633900  58.3385990  22.3085210 145.6350010  57.5708190  22.3088850
 145.0635440  58.6374750  21.3991820 154.9213850  67.1576840  20.1630480
 154.3025290  67.6134340  19.5924920 155.7765630  67.3128300  19.7620180
 154.1152100  63.1415830  21.7697520 154.0460380  62.2005770  21.6086650
 154.8771960  63.2317240  22.3420090 146.3058770  53.7470350  24.0954140
 146.1261610  52.8496100  24.3756900 145.9038850  54.2942220  24.7701090
 155.1457270  55.9486210  21.9966450 155.5222090  55.0758090  21.8840120
 155.0476780  56.2844910  21.1056890 149.2762280  54.3211840  17.4583890
 149.3829030  55.2215570  17.7652650 148.3654640  54.2729810  17.1678540
 158.9281390  53.4436650  18.9294790 159.7491010  52.9533220  18.9720270
 158.9615470  54.0334310  19.6826630 146.9245440  56.2430850  22.7036480
 147.6055550  56.5069220  23.3223880 146.6093490  55.4031720  23.0374490
 151.1170010  57.2898210  21.7909070 151.6248230  57.7879180  22.4314090
 151.6483250  56.5133410  21.6148430 163.2180940  55.4603400  25.4938420
 162.5133110  55.8485110  24.9753530 163.4838860  56.1553690  26.0959350
 149.4006110  51.9296770  26.0572490 149.4024550  52.4469160  25.2518390
 148.5710420  51.4526950  26.0342420 155.7877200  62.0416080  17.5562390
 155.1694470  62.5065530  16.9925110 156.3000450  62.7343560  17.9731900
 150.6508960  61.5691950  24.2345990 150.3178340  62.1960870  24.8767060
 150.8275640  62.0953830  23.4547660 159.1642870  55.3837030  21.7022330
 158.4598440  55.6721920  22.2825440 159.5255030  56.1937140  21.3421890
 149.0821440  53.6406730  24.0642940 149.4238250  54.4848780  23.7696810
 148.1437250  53.7890470  24.1808280 149.8628060  63.5372750  26.0495170
 150.4802060  64.2123830  25.7679620 149.0021180  63.9460730  25.9582670
 145.1560400  62.7272610  14.9302020 144.7788380  63.2159710  14.1986920
 145.4133470  63.3997890  15.5608550 160.7805650  65.0012160  23.9649810
 160.0969170  65.6711270  23.9566480 161.3199940  65.1992810  23.1994670
 162.2329790  54.8291820  22.0931540 161.2854700  54.8630800  22.2246970
 162.5579780  55.6430770  22.4780900 152.7649330  51.1289000  20.3887530
 153.0724310  50.5735890  19.6723030 151.8350030  51.2633460  20.2060520
 158.3164390  66.8456290  22.6794990 158.3291550  66.4418580  21.8117250
 157.7639610  67.6203580  22.5756420 159.6109810  63.5672510  17.7685160
 159.5006140  62.6246840  17.8934580 159.6078060  63.9288150  18.6547920
 157.7149830  61.7486130  24.0077600 158.1318620  61.5346240  23.1731060
 158.4389650  62.0058920  24.5786220 155.1530090  59.1937830  17.1247650
 154.2259370  59.1275210  17.3536120 155.3054910  60.1317960  17.0102890
 155.1399170  55.4654830  14.1214810 154.2002840  55.6268790  14.2067270
 155.4582430  56.1840510  13.5750800 161.6611930  60.1473350  24.0993840
 160.8330560  60.2166440  23.6243970 162.2562410  60.7327660  23.6309670
 159.1827380  60.7558130  17.6282900 158.5639800  60.4177680  16.9809200
 159.1651830  60.1117890  18.3362090 158.6253940  56.9342670  25.0448710
 158.2125120  57.7596380  25.2988700 157.8929890  56.3487710  24.8525070
 150.7586730  59.7202570  19.9067380 150.3543730  59.0079820  19.4113280
 150.8449850  59.3755810  20.7955420 151.2268430  63.4070130  22.0706590
 150.9296720  62.8015600  21.3914370 152.1768250  63.4447440  21.9595950
 149.4715350  56.4945780  23.6866420 150.0229940  56.6041120  22.9119670
 149.9858860  56.8683380  24.4021650 159.3154040  66.9802000  25.7329690
 158.8384600  67.7874190  25.5402300 158.6315830  66.3280330  25.8855900
 150.3186860  63.1451820  28.7214390 149.4215390  63.3691790  28.9687790
 150.3439730  63.2686760  27.7725790 157.3592080  59.9944940  14.6355650
 157.7985360  59.1567370  14.4893470 158.0720500  60.6274340  14.7219790
 149.1458080  60.0165140  27.2971760 149.0065850  60.8887940  27.6659160
 148.2639440  59.6737950  27.1519700 155.4687460  64.9341010  18.6036890
 155.9083370  65.6765340  18.1892280 155.4074350  65.1767580  19.5275850
 150.9438430  65.9586840  29.5056910 150.9153860  66.3629790  28.6385340
 150.7803400  65.0297200  29.3428510 160.9409220  51.2487750  12.9496690
 160.6281880  51.3414580  13.8495760 161.7021690  51.8268780  12.8994120
 147.4591360  58.6147550  17.4074030 147.3388960  59.3409640  16.7955300
 147.1492250  57.8450460  16.9301940 162.8953250  66.7413940  30.8021080
 163.3712970  67.2196830  31.4810160 163.5160410  66.6731430  30.0766580
 145.0976730  61.7862690  23.2142670 145.1757150  61.9211460  22.2698390
 145.7118410  61.0778580  23.4070790 146.3424360  63.4862880  19.6248850
 145.9352440  63.6277470  18.7702450 147.2337370  63.2023040  19.4220060
 162.2986500  63.9326790  27.9621090 162.4249560  63.6938670  27.0438270
 162.3407880  63.1011330  28.4343170 156.1603240  67.6354790  26.5315900
 156.6747910  67.5462800  27.3338330 155.3172320  67.9814490  26.8243810
 158.1357640  67.9210130  15.9599900 157.9758780  67.6313070  16.8581730
 157.9704350  67.1450260  15.4245130 150.6146020  67.7008660  17.7371520
 150.4388500  66.7844200  17.5239320 149.7601760  68.0595950  17.9769320
 157.8383770  65.4297690  14.5197900 157.1448930  65.4274980  13.8600180
 158.5806630  65.0057010  14.0892070 157.4033700  67.0560400  18.5946390
 157.8590650  66.2749780  18.9085010 157.7426220  67.7667220  19.1387570
 162.1510510  55.9859250  28.9270830 161.5354780  56.4938920  28.3986290
 161.8306930  55.0857580  28.8696770 145.1536250  62.8276860  25.7537130
 145.3167290  62.3582220  24.9356500 145.6188700  62.3200420  26.4185970
 149.9255020  51.9582620  20.7897700 149.4823170  52.7392160  20.4582220
 150.4840010  52.2812510  21.4968640 154.2124830  54.8251140  26.3933020
 153.7504200  55.0334160  27.2052960 153.8102940  54.0110490  26.0903690
 159.2129340  56.0460090  27.5229680 158.3622930  55.7465840  27.8438750
 159.0531130  56.2902100  26.6113500 156.3079050  57.5461840  29.6228470
 156.6332460  56.7125590  29.2830700 157.0959380  58.0690360  29.7706800
 153.0413840  51.5793320  15.6703530 152.4168020  51.5753190  16.3956840
 152.9543960  50.7124280  15.2739500 151.9630920  52.5029950  22.6487300
 152.2603250  53.4092780  22.5679320 152.5116480  52.0148730  22.0346870
 149.7169240  57.0816190  18.5178950 149.4910160  56.8653360  19.4225570
 148.9361770  57.5144650  18.1724920 156.9467000  57.0879560  17.1169600
 156.3475890  57.8115360  16.9333220 157.4946610  57.0256340  16.3346050
 152.1568450  57.9801770  29.1839220 152.0612050  57.0396500  29.0339620
 153.0000430  58.2016840  28.7887290 155.5531870  55.7243100  19.1472880
 155.9461440  56.0415300  18.3341570 155.9148720  54.8454980  19.2617400
 147.2878990  54.3915440  27.3373000 146.8942380  55.2390650  27.5445780
 146.5997390  53.7541810  27.5281640 153.8624040  54.4750410  30.4069740
 153.1722360  54.2822610  31.0415830 154.6056340  54.7585050  30.9394040
 144.5896040  52.3143900  21.3703080 144.3009090  52.8846760  22.0828060
 145.3341800  51.8348350  21.7334310 144.7766270  56.2564020  12.5805800
 144.6940940  57.1994780  12.7220790 144.4249330  56.1138930  11.7018150
 156.1387010  58.3148850  23.2423660 155.4068130  58.8235660  23.5913760
 155.7411350  57.4978830  22.9412440 152.5764400  54.9903050  21.6476150
 152.5800460  54.5493000  20.7980690 153.4715520  55.3120380  21.7547970
 148.4266780  54.8729540  20.6070360 148.0866830  55.3504770  21.3637410
 147.6644100  54.4194660  20.2471460 152.6384550  55.9915130  14.6382910
 152.7597370  55.9501610  15.5868730 152.2533060  56.8539280  14.4829640
 156.6012920  53.7682530  22.6546600 156.6185660  54.2191180  23.4988450
 156.3528500  52.8688170  22.8680040 151.6506050  58.3016270  14.0366210
 151.0822950  57.8534520  13.4102120 152.3595050  58.6609050  13.5031360
 160.0283670  51.1814710  28.4932980 160.3529440  50.4504370  29.0190960
 160.0640180  50.8628350  27.5913970 146.7275230  62.2028290  27.9132940
 146.3430020  61.5621960  28.5115900 147.0387420  62.9064410  28.4827670
 152.8772370  59.0504830  23.3941560 153.2442500  58.5763400  24.1402900
 152.6877430  59.9246400  23.7349900 145.7412860  53.7948520  19.5235030
 145.4559780  53.4304190  20.3613650 145.6791720  53.0628980  18.9098170
 150.6671740  58.0913470  25.7125770 150.3628810  58.9705450  25.9376130
 151.6218200  58.1513260  25.7483210 149.1953530  62.2974460  16.3092620
 148.4215790  61.7572080  16.1491340 149.9248160  61.7781070  15.9710380
 159.9541510  61.2939820  22.1019010 160.6740630  61.7895110  21.7115120
 159.7523330  60.6157710  21.4572880 155.4151450  52.6877780  16.2448400
 154.6016060  52.1890950  16.1693710 155.2213400  53.5276030  15.8284750
 155.3360310  61.3648880  27.9888010 155.2697620  60.4444550  27.7345600
 154.7065450  61.4624320  28.7032650 158.1299840  57.0597430  14.5410560
 159.0179460  57.3714660  14.3661900 158.1004930  56.1869680  14.1491140
 149.2390930  61.9654840  19.9471430 149.7569600  61.1623100  19.8928320
 148.7874950  61.9033980  20.7888260 154.1260430  63.2321120  15.2198730
 154.4676130  63.9763350  14.7242050 153.2973140  63.5452240  15.5823560
 146.7235470  58.9316210  26.8597130 146.3650410  59.5970060  27.4470470
 146.4290030  58.0999760  27.2309750 149.9248590  59.3900450  29.7436680
 149.6248730  59.5357630  28.8464500 150.6959830  58.8305740  29.6510070
 155.2677040  64.1869450  27.7391810 155.2821580  63.2550410  27.5210720
 154.5602140  64.2729210  28.3781580 160.4014110  58.3709270  14.0090420
 160.3177830  58.8023490  13.1586860 161.1208300  58.8307620  14.4417240
 161.4788250  60.8276790  27.0860390 160.7536440  61.4205570  26.8889780
 162.0063710  60.8200330  26.2873760 161.4301360  65.2251530  16.7372550
 160.7877520  64.5707150  17.0116270 161.0432020  65.6306620  15.9613220
 157.0087840  62.5536960  20.5844240 157.3611660  61.9565090  19.9245610
 156.1250170  62.2281190  20.7552490 153.0951120  63.3134650  17.9914650
 153.7822250  63.8603860  18.3722240 152.3083540  63.8575380  18.0264260
 145.2343520  58.9307470  13.4831730 146.1038370  59.2132270  13.7667650
 144.7433840  59.7443340  13.3680540 152.3978330  60.3180680  17.6040010
 152.8541110  61.1285930  17.8300200 152.0466540  60.0003820  18.4358500
 154.7010940  65.8287020  24.8332310 155.3453160  66.0346400  25.5105730
 155.0640380  65.0675420  24.3803160 148.2990110  50.6618330  18.0762530
 148.1704740  50.6536230  19.0247450 147.4752130  51.0001420  17.7253540
 155.9743020  63.8319370  23.5509760 156.6165250  63.1312530  23.6641930
 156.4992370  64.6117810  23.3706650 159.8198740  64.1167990  13.2748900
 159.5936320  63.3998430  13.8673540 159.4294940  63.8680430  12.4370650
 157.7480640  64.6314270  26.7545820 158.0836880  65.2180960  27.4323740
 156.8280980  64.5006980  26.9843610 145.6014770  68.1434850  14.0493360
 145.9612410  68.7424190  13.3950630 145.4607110  68.6894740  14.8228390
 145.2984040  52.4209450  27.5369230 144.5842560  52.6206370  28.1421840
 145.7179080  51.6449020  27.9084030 159.4014990  62.0339930  14.9363060
 159.1136690  62.4952620  15.7240940 160.1967160  61.5737700  15.2047280
 145.5856630  66.4089710  28.5235760 145.6947750  65.4684450  28.3831150
 144.9337190  66.6744460  27.8749490 153.5769220  64.6805600  29.9233880
 153.2566090  63.9614840  30.4679570 152.9027580  65.3560670  29.9969940
 151.6183390  65.5266050  14.8667030 151.6093490  66.2595740  14.2511540
 150.6981750  65.2797630  14.9593990 147.2190030  60.7480940  15.6113790
 146.6117980  61.4879840  15.6209090 147.6939380  60.8380300  14.7851990
 156.7922820  54.9131760  25.2870680 157.1603640  54.0926970  25.6150250
 155.9321020  54.9733650  25.7026330 160.1584850  53.8688700  16.0958240
 159.5298010  53.9734370  15.3816470 159.6636770  54.0885480  16.8852120
 154.6042990  65.5894290  13.5292220 154.7054970  65.3858280  12.5994200
 153.7044730  65.3352570  13.7340000 152.1268880  56.1474650  17.5116120
 151.4185030  56.6160990  17.9529730 152.4113360  55.4896660  18.1461310
 153.7524810  57.5671350  25.5108650 154.2510060  58.0417170  26.1760500
 153.8947760  56.6434870  25.7178680 156.1584310  52.8725310  18.9511910
 156.0352090  52.8911440  18.0021420 157.1068870  52.9204250  19.0710310
 153.2461100  68.1080610  18.2239890 153.5002600  68.0702000  17.3019260
 152.2973580  67.9813940  18.2168140 150.3303900  54.4559730  14.8866830
 151.1794430  54.8929880  14.8207020 149.9635170  54.7679990  15.7138890
 160.9591670  53.7839310  26.3537040 160.4565270  54.5244710  26.6930850
 161.7748330  54.1723310  26.0373830 159.2513680  59.0272490  19.7998400
 158.3103820  59.0422720  19.9746090 159.5657750  58.2408450  20.2458700
 149.2295320  60.7092090  13.3602360 149.9958590  60.5973450  13.9227790
 149.3070010  60.0130060  12.7079130 147.9242080  58.1417160  14.0435250
 148.0045670  57.1944670  14.1552650 148.8161830  58.4724040  14.1495910
 161.2539260  66.1981340  21.4752660 161.3786680  67.0212510  21.9476470
 162.1204820  65.9872070  21.1276810 148.7256790  68.2912550  21.1469790
 149.4619270  67.7428010  21.4178360 149.1097710  69.1568560  21.0075780
 145.6102270  64.3586120  17.0211300 144.6842050  64.6007260  17.0116710
 146.0758700  65.1860380  16.8996050 147.7315070  67.4758620  30.3355370
 148.5327800  67.7970670  30.7490770 147.2166890  67.1154200  31.0575280
 151.8359100  67.4642860  12.9695360 152.6287710  67.7531690  12.5177150
 151.3163450  67.0335030  12.2907840 156.5679700  63.5838490  30.2830780
 155.9617860  63.6070090  29.5426530 156.2633810  62.8521530  30.8198030
 157.9980070  67.3118780  28.8940190 158.9501820  67.2276800  28.8440430
 157.8508290  67.9760490  29.5673980 160.8889270  66.6912990  14.3932100
 160.6030780  66.2778130  13.5786280 160.6908820  67.6200700  14.2732620
 145.4512880  59.9632080  29.2791420 145.9551900  59.3839360  29.8507650
 144.7120300  60.2472310  29.8167790 152.3536500  62.6846270  12.8337710
 152.2487140  62.0698620  13.5599090 152.1860720  62.1612160  12.0500720
 152.5050820  61.3703070  28.8126940 151.7396490  61.9388070  28.7281610
 152.6866780  61.0779280  27.9195170 155.5939230  61.7466300  13.4379700
 155.0449330  62.1935600  14.0822440 156.2158490  61.2415550  13.9617370
 159.6474170  63.1008400  29.3701960 160.3883640  63.4384160  28.8669420
 158.8846850  63.2700460  28.8171730 147.4835960  58.1061670  30.1741490
 147.5241300  57.8075540  31.0826720 148.3381460  58.5069280  30.0149010
 151.2614350  60.7057220  15.3345000 151.6830770  60.5397090  16.1776390
 151.3865190  59.8957450  14.8400140 149.4241770  56.6853770  28.1415980
 148.8938230  56.1944720  27.5139320 150.0929840  57.1137970  27.6073910
 153.7741990  59.7294830  12.5822100 154.2947650  59.0143850  12.2163250
 154.4210390  60.3680700  12.8822610 158.3219830  61.1523230  27.9057170
 158.7360850  61.3068310  28.7547590 157.3870830  61.2778450  28.0682950
 158.7942000  58.4919390  29.9096320 159.3762770  57.7371710  29.8216800
 158.9703770  59.0226830  29.1327800 149.9114070  53.6516140  28.2213270
 149.8170940  53.0336890  27.4964140 149.3311460  54.3782430  27.9943180
 152.6775510  52.2089380  25.2540660 152.2292810  52.2313640  24.4086210
 152.0440710  51.8108400  25.8510960 153.0835060  61.1043710  25.8753100
 153.5023170  61.9476440  25.7029340 152.1643690  61.2415750  25.6459880
 155.4198960  58.8359890  27.2590940 155.5395170  58.2401030  27.9985780
 156.2792960  58.8729580  26.8392240 157.7586860  59.3897080  25.8353450
 157.2322080  59.9139700  25.2318590 158.1018200  60.0224470  26.4663180
 150.1573250  56.7790450  12.2803160 149.9562310  55.9157810  12.6416500
 149.9865300  56.6923810  11.3424760 150.9342480  67.4096720  26.9910830
 150.3963570  68.1342780  26.6719530 151.1876440  66.9327060  26.2008170
 152.1867730  55.3781240  28.5166760 152.7767420  55.0697090  29.2044580
 151.3687970  54.9060990  28.6726660 157.0061160  54.9947050  28.7499780
 156.3176680  54.3328590  28.6849770 157.7267180  54.5485320  29.1948240
 157.6361560  51.5898680  14.8090040 157.9163850  50.7466580  15.1649460
 156.8627290  51.8221790  15.3228790 148.9556050  53.8791070  12.2681040
 149.2581950  53.8858500  11.3600190 149.6950640  53.5288930  12.7648700
 153.7904690  68.6447930  27.2497480 153.7163390  69.5483070  27.5569850
 152.8883530  68.3259830  27.2219550 152.1740980  52.8225690  13.2537240
 151.8262980  52.1449680  12.6739690 152.3753750  52.3615200  14.0680630
 154.3390020  67.8106440  14.8723840 155.2340810  68.1491410  14.8942600
 154.3707650  67.0885850  14.2448120 147.9786180  63.1833490  13.1010840
 148.4161050  63.7263160  13.7568420 148.4633910  62.3580440  13.1107180
 145.1931980  65.9722520  20.5531100 145.5234990  65.1043580  20.3209740
 145.6222980  66.1781040  21.3836060 149.7893900  64.3031530  18.2133070
 149.4889440  64.1796500  19.1136980 149.6831390  63.4440120  17.8048800
 145.6822190  66.8393110  23.2912730 145.2453180  67.0193910  24.1236880
 146.2499870  67.5967730  23.1494450 161.3184370  66.3410110  27.5790040
 160.7186360  66.4002670  26.8353960 161.4478270  65.4015090  27.7086890
 162.5585820  64.0827930  12.9159750 161.7278780  64.1504580  13.3866980
 162.7357650  64.9732050  12.6126610 162.0142280  60.8275410  15.4193950
 162.7761190  61.3972060  15.5253640 162.0296650  60.2602610  16.1902260
 145.5146620  59.3513340  19.6501610 144.8595460  59.0824980  19.0061310
 146.3524570  59.2417820  19.2003590 160.0036010  63.0662090  25.6766200
 159.1895850  63.4959250  25.9391990 160.4110210  63.6780500  25.0635250
 162.0661450  61.1209780  12.5766470 162.3410290  62.0288660  12.4485690
 161.8772190  61.0572310  13.5128460 158.4637060  54.1454630  13.8720100
 158.8821940  53.9585610  13.0316760 158.1573120  53.2933680  14.1823030
 161.9626790  59.0578770  17.5695900 161.5870390  58.2906700  17.1377190
 161.2329910  59.4401470  18.0570830 146.5522550  59.7365910  24.1904950
 146.9195590  59.6493310  25.0700970 145.9833370  58.9732460  24.0911810
 161.3526410  58.2050290  27.2035420 161.1212500  57.9763040  26.3033370
 161.6130960  59.1249840  27.1580310 146.1038550  56.6475000  28.0963370
 145.2094600  56.6141760  28.4357080 146.6436100  56.8461790  28.8614620
 159.7914480  53.4306720  29.9815120 160.6684660  53.4390120  30.3649120
 159.8035320  52.6937560  29.3707470 144.7284700  56.5612270  15.5926940
 143.8248780  56.8242470  15.4178600 145.2125320  56.8323440  14.8126900
 161.2377750  57.2836260  20.8703140 161.7615230  56.7898910  20.2393310
 161.8237170  57.4186620  21.6150710 161.4167470  57.3676130  24.3922690
 160.4670180  57.3339670  24.5067680 161.5980480  58.2776240  24.1572460
 147.2711910  55.6177810  13.5021320 147.9803610  55.1961030  13.0168600
 146.5551850  55.6853040  12.8704670 146.9186070  51.6717140  12.5423970
 147.6414200  52.2126080  12.8605190 147.1910590  51.3980560  11.6665510
 160.7277720  56.5409610  16.8095550 161.2236840  56.3080480  17.5944430
 160.5293790  55.7021450  16.3933190 146.6078260  50.9223330  22.4446590
 147.2554450  50.3720710  22.0041750 147.0280100  51.1766480  23.2662400
 162.1564880  55.1770560  19.3433230 162.0464160  55.0226600  20.2815500
 162.9172470  54.6491500  19.1008640 160.5030600  51.1164690  25.8016230
 161.1402820  51.7298830  26.1675420 160.6505490  51.1525350  24.8565460
 163.0455150  53.0078480  12.5839370 163.9704460  52.8759660  12.3757660
 163.0230940  53.0871300  13.5375820 163.1193640  53.7789140  15.2096080
 162.3245140  53.7134260  15.7388990 163.3236920  54.7139780  15.1981430
 160.0612060  67.8180690  19.2034470 160.6571130  67.4965260  18.5268890
 160.3190210  67.3452510  19.9947740 146.3610260  51.0779000  25.1871910
 146.0125080  51.5342820  25.9530090 146.0297960  50.1836130  25.2694340
 147.9674630  64.2498600  29.3525100 147.9244260  63.8791510  30.2339560
 148.0985640  65.1876170  29.4926920 151.6680660  65.8058190  24.9534820
 151.4272020  66.0732750  24.0665340 152.6083300  65.9763920  25.0085680
 153.8735080  52.2690880  28.7091330 153.8123970  52.8612710  29.4586740
 154.8135460  52.1616840  28.5641590 156.5109640  51.9260940  28.3483620
 157.1250050  52.2440230  27.6864700 157.0559200  51.4409530  28.9679480
 162.9284820  67.8252570  25.7545460 162.4343100  68.2221440  25.0372590
 162.3198110  67.2001780  26.1482740 147.0330900  50.6055200  28.4622680
 147.5813890  50.4243250  27.6988790 147.0986210  49.8149310  28.9978990
 147.8062660  67.1960850  26.4722880 147.2122980  67.0645550  27.2112920
 147.7986500  66.3598990  26.0064980 157.2517680  50.4893080  24.6752910
 156.3777520  50.8228190  24.4725840 157.1428430  50.0166260  25.5004780
 158.1589660  52.6963950  26.0594630 157.8303020  51.8815710  25.6796360
 159.1071960  52.6533760  25.9360320 160.6124270  68.4675990  23.0332200
 160.1527240  69.2191800  22.6590220 159.9836730  67.7482460  22.9747000
 147.4374890  64.5619230  25.4230920 146.7108950  63.9424520  25.3556870
 147.4984040  64.9559840  24.5529000 151.0419990  66.7764230  22.2080330
 151.5585010  66.1651590  21.6828590 151.6917370  67.2793010  22.6991340
 153.7815490  67.6672720  23.0349310 154.0693300  67.4127020  22.1582320
 154.2938710  67.1150080  23.6254880 154.9992500  51.4062920  23.6145820
 154.2164290  51.8808420  23.8942580 154.7055430  50.5017750  23.5059000
 159.5513570  52.1086020  21.6594910 159.9921660  52.0531120  20.8116510
 159.2821160  53.0244030  21.7305090 161.4152140  51.7401260  19.6703730
 161.3540540  50.7962480  19.5234750 162.1944170  51.8481350  20.2157190
 145.7204890  67.8793620  18.6327680 145.5526930  67.2464300  19.3309570
 144.8539400  68.0853020  18.2821870 146.3432910  51.7110400  16.1359540
 147.1012270  51.8239280  15.5623570 145.8810080  52.5479600  16.0902970
 152.8846720  53.8249670  19.1261850 152.0721230  53.4506560  18.7857730
 153.3888360  53.0694750  19.4283040 157.3871700  50.4892120  20.3644920
 157.9901070  51.0612330  20.8393440 156.6464690  51.0531560  20.1418820
 160.5306300  50.8913680  15.6385200 160.7256930  51.7897130  15.9052630
 159.7436170  50.6600760  16.1318150 147.3267590  66.5726850  16.0777820
 146.8015210  66.9534880  15.3739780 147.2512170  67.1977620  16.7987530
 148.7158060  52.2374450  14.6761510 149.2450820  51.4504250  14.5469460
 149.3486380  52.9165640  14.9097040 150.9095900  51.9749590  17.7306900
 150.2798640  51.2736900  17.8977030 150.3701040  52.7353720  17.5140060
 153.8487850  68.5888820  30.4017510 154.7755160  68.3533090  30.4453470
 153.8338280  69.4160820  29.9203540 162.0832910  68.1314390  17.3991760
 162.2585100  67.4452130  16.7552680 161.3854480  68.6561440  17.0068430
 151.0351460  51.2533570  30.1659390 150.7535730  51.7567170  29.4020210
 151.4171160  50.4555320  29.8001520 149.9260560  68.5209230  14.9527070
 150.6579380  68.2368510  14.4050960 150.1854230  68.2822510  15.8426450
 149.0875350  64.6373960  14.9573400 148.4584230  65.1059060  15.5059230
 149.2023180  63.7923180  15.3919590 157.6366920  50.6687150  30.7439860
 157.5232370  50.9881760  31.6391380 158.4536660  51.0699660  30.4477140
 160.4165410  67.8158680  30.2258550 161.2090730  67.3207910  30.0184510
 160.7098560  68.4948820  30.8334160 154.6743110  60.4658640   2.9883870
 153.8985210  59.9859080   3.2782440 155.3256040  59.7864290   2.8140030
 148.6908940  60.7778450   3.8659630 147.8593820  60.5227160   4.2656140
 149.2989920  60.8489220   4.6017550 158.6950540  64.8718830   1.7683000
 158.2332070  64.1006070   2.0970170 159.5076090  64.8984900   2.2735450
 148.6710200  64.8118540   4.0617650 148.9738240  63.9216280   3.8827870
 149.4153790  65.3688760   3.8339900 145.0633900  58.3385990   3.5341720
 145.6350010  57.5708190   3.5345360 145.0635440  58.6374750   2.6248330
 154.1152100  63.1415830   2.9954030 154.0460380  62.2005770   2.8343160
 154.8771960  63.2317240   3.5676600 146.3058770  53.7470350   5.3210650
 146.1261610  52.8496100   5.6013410 145.9038850  54.2942220   5.9957600
 155.1457270  55.9486210   3.2222960 155.5222090  55.0758090   3.1096630
 155.0476780  56.2844910   2.3313400 146.9245440  56.2430850   3.9292990
 147.6055550  56.5069220   4.5480390 146.6093490  55.4031720   4.2631000
 151.1170010  57.2898210   3.0165580 151.6248230  57.7879180   3.6570600
 151.6483250  56.5133410   2.8404940 163.2180940  55.4603400   6.7194930
 162.5133110  55.8485110   6.2010040 163.4838860  56.1553690   7.3215860
 149.4006110  51.9296770   7.2829000 149.4024550  52.4469160   6.4774900
 148.5710420  51.4526950   7.2598930 150.6508960  61.5691950   5.4602500
 150.3178340  62.1960870   6.1023570 150.8275640  62.0953830   4.6804170
 159.1642870  55.3837030   2.9278840 158.4598440  55.6721920   3.5081950
 159.5255030  56.1937140   2.5678400 149.0821440  53.6406730   5.2899450
 149.4238250  54.4848780   4.9953320 148.1437250  53.7890470   5.4064790
 149.8628060  63.5372750   7.2751680 150.4802060  64.2123830   6.9936130
 149.0021180  63.9460730   7.1839180 160.7805650  65.0012160   5.1906320
 160.0969170  65.6711270   5.1822990 161.3199940  65.1992810   4.4251180
 162.2329790  54.8291820   3.3188050 161.2854700  54.8630800   3.4503480
 162.5579780  55.6430770   3.7037410 158.3164390  66.8456290   3.9051500
 158.3291550  66.4418580   3.0373760 157.7639610  67.6203580   3.8012930
 157.7149830  61.7486130   5.2334110 158.1318620  61.5346240   4.3987570
 158.4389650  62.0058920   5.8042730 161.6611930  60.1473350   5.3250350
 160.8330560  60.2166440   4.8500480 162.2562410  60.7327660   4.8566180
 158.6253940  56.9342670   6.2705220 158.2125120  57.7596380   6.5245210
 157.8929890  56.3487710   6.0781580 151.2268430  63.4070130   3.2963100
 150.9296720  62.8015600   2.6170880 152.1768250  63.4447440   3.1852460
 149.4715350  56.4945780   4.9122930 150.0229940  56.6041120   4.1376180
 149.9858860  56.8683380   5.6278160 159.3154040  66.9802000   6.9586200
 158.8384600  67.7874190   6.7658810 158.6315830  66.3280330   7.1112410
 150.3186860  63.1451820   9.9470900 149.4215390  63.3691790  10.1944300
 150.3439730  63.2686760   8.9982300 149.1458080  60.0165140   8.5228270
 149.0065850  60.8887940   8.8915670 148.2639440  59.6737950   8.3776210
 150.9438430  65.9586840  10.7313420 150.9153860  66.3629790   9.8641850
 150.7803400  65.0297200  10.5685020 162.8953250  66.7413940  12.0277590
 163.3712970  67.2196830  12.7066670 163.5160410  66.6731430  11.3023090
 145.0976730  61.7862690   4.4399180 145.1757150  61.9211460   3.4954900
 145.7118410  61.0778580   4.6327300 162.2986500  63.9326790   9.1877600
 162.4249560  63.6938670   8.2694780 162.3407880  63.1011330   9.6599680
 156.1603240  67.6354790   7.7572410 156.6747910  67.5462800   8.5594840
 155.3172320  67.9814490   8.0500320 162.1510510  55.9859250  10.1527340
 161.5354780  56.4938920   9.6242800 161.8306930  55.0857580  10.0953280
 145.1536250  62.8276860   6.9793640 145.3167290  62.3582220   6.1613010
 145.6188700  62.3200420   7.6442480 149.9255020  51.9582620   2.0154210
 149.4823170  52.7392160   1.6838730 150.4840010  52.2812510   2.7225150
 154.2124830  54.8251140   7.6189530 153.7504200  55.0334160   8.4309470
 153.8102940  54.0110490   7.3160200 159.2129340  56.0460090   8.7486190
 158.3622930  55.7465840   9.0695260 159.0531130  56.2902100   7.8370010
 156.3079050  57.5461840  10.8484980 156.6332460  56.7125590  10.5087210
 157.0959380  58.0690360  10.9963310 151.9630920  52.5029950   3.8743810
 152.2603250  53.4092780   3.7935830 152.5116480  52.0148730   3.2603380
 152.1568450  57.9801770  10.4095730 152.0612050  57.0396500  10.2596130
 153.0000430  58.2016840  10.0143800 147.2878990  54.3915440   8.5629510
 146.8942380  55.2390650   8.7702290 146.5997390  53.7541810   8.7538150
 153.8624040  54.4750410  11.6326250 153.1722360  54.2822610  12.2672340
 154.6056340  54.7585050  12.1650550 144.5896040  52.3143900   2.5959590
 144.3009090  52.8846760   3.3084570 145.3341800  51.8348350   2.9590820
 156.1387010  58.3148850   4.4680170 155.4068130  58.8235660   4.8170270
 155.7411350  57.4978830   4.1668950 152.5764400  54.9903050   2.8732660
 152.5800460  54.5493000   2.0237200 153.4715520  55.3120380   2.9804480
 148.4266780  54.8729540   1.8326870 148.0866830  55.3504770   2.5893920
 147.6644100  54.4194660   1.4727970 156.6012920  53.7682530   3.8803110
 156.6185660  54.2191180   4.7244960 156.3528500  52.8688170   4.0936550
 160.0283670  51.1814710   9.7189490 160.3529440  50.4504370  10.2447470
 160.0640180  50.8628350   8.8170480 146.7275230  62.2028290   9.1389450
 146.3430020  61.5621960   9.7372410 147.0387420  62.9064410   9.7084180
 152.8772370  59.0504830   4.6198070 153.2442500  58.5763400   5.3659410
 152.6877430  59.9246400   4.9606410 150.6671740  58.0913470   6.9382280
 150.3628810  58.9705450   7.1632640 151.6218200  58.1513260   6.9739720
 159.9541510  61.2939820   3.3275520 160.6740630  61.7895110   2.9371630
 159.7523330  60.6157710   2.6829390 155.3360310  61.3648880   9.2144520
 155.2697620  60.4444550   8.9602110 154.7065450  61.4624320   9.9289160
 146.7235470  58.9316210   8.0853640 146.3650410  59.5970060   8.6726980
 146.4290030  58.0999760   8.4566260 149.9248590  59.3900450  10.9693190
 149.6248730  59.5357630  10.0721010 150.6959830  58.8305740  10.8766580
 155.2677040  64.1869450   8.9648320 155.2821580  63.2550410   8.7467230
 154.5602140  64.2729210   9.6038090 161.4788250  60.8276790   8.3116900
 160.7536440  61.4205570   8.1146290 162.0063710  60.8200330   7.5130270
 154.7010940  65.8287020   6.0588820 155.3453160  66.0346400   6.7362240
 155.0640380  65.0675420   5.6059670 155.9743020  63.8319370   4.7766270
 156.6165250  63.1312530   4.8898440 156.4992370  64.6117810   4.5963160
 157.7480640  64.6314270   7.9802330 158.0836880  65.2180960   8.6580250
 156.8280980  64.5006980   8.2100120 145.2984040  52.4209450   8.7625740
 144.5842560  52.6206370   9.3678350 145.7179080  51.6449020   9.1340540
 145.5856630  66.4089710   9.7492270 145.6947750  65.4684450   9.6087660
 144.9337190  66.6744460   9.1006000 153.5769220  64.6805600  11.1490390
 153.2566090  63.9614840  11.6936080 152.9027580  65.3560670  11.2226450
 156.7922820  54.9131760   6.5127190 157.1603640  54.0926970   6.8406760
 155.9321020  54.9733650   6.9282840 153.7524810  57.5671350   6.7365160
 154.2510060  58.0417170   7.4017010 153.8947760  56.6434870   6.9435190
 160.9591670  53.7839310   7.5793550 160.4565270  54.5244710   7.9187360
 161.7748330  54.1723310   7.2630340 161.2539260  66.1981340   2.7009170
 161.3786680  67.0212510   3.1732980 162.1204820  65.9872070   2.3533320
 148.7256790  68.2912550   2.3726300 149.4619270  67.7428010   2.6434870
 149.1097710  69.1568560   2.2332290 147.7315070  67.4758620  11.5611880
 148.5327800  67.7970670  11.9747280 147.2166890  67.1154200  12.2831790
 156.5679700  63.5838490  11.5087290 155.9617860  63.6070090  10.7683040
 156.2633810  62.8521530  12.0454540 157.9980070  67.3118780  10.1196700
 158.9501820  67.2276800  10.0696940 157.8508290  67.9760490  10.7930490
 145.4512880  59.9632080  10.5047930 145.9551900  59.3839360  11.0764160
 144.7120300  60.2472310  11.0424300 152.5050820  61.3703070  10.0383450
 151.7396490  61.9388070   9.9538120 152.6866780  61.0779280   9.1451680
 159.6474170  63.1008400  10.5958470 160.3883640  63.4384160  10.0925930
 158.8846850  63.2700460  10.0428240 147.4835960  58.1061670  11.3998000
 147.5241300  57.8075540  12.3083230 148.3381460  58.5069280  11.2405520
 149.4241770  56.6853770   9.3672490 148.8938230  56.1944720   8.7395830
 150.0929840  57.1137970   8.8330420 158.3219830  61.1523230   9.1313680
 158.7360850  61.3068310   9.9804100 157.3870830  61.2778450   9.2939460
 158.7942000  58.4919390  11.1352830 159.3762770  57.7371710  11.0473310
 158.9703770  59.0226830  10.3584310 149.9114070  53.6516140   9.4469780
 149.8170940  53.0336890   8.7220650 149.3311460  54.3782430   9.2199690
 152.6775510  52.2089380   6.4797170 152.2292810  52.2313640   5.6342720
 152.0440710  51.8108400   7.0767470 153.0835060  61.1043710   7.1009610
 153.5023170  61.9476440   6.9285850 152.1643690  61.2415750   6.8716390
 155.4198960  58.8359890   8.4847450 155.5395170  58.2401030   9.2242290
 156.2792960  58.8729580   8.0648750 157.7586860  59.3897080   7.0609960
 157.2322080  59.9139700   6.4575100 158.1018200  60.0224470   7.6919690
 150.9342480  67.4096720   8.2167340 150.3963570  68.1342780   7.8976040
 151.1876440  66.9327060   7.4264680 152.1867730  55.3781240   9.7423270
 152.7767420  55.0697090  10.4301090 151.3687970  54.9060990   9.8983170
 157.0061160  54.9947050   9.9756290 156.3176680  54.3328590   9.9106280
 157.7267180  54.5485320  10.4204750 153.7904690  68.6447930   8.4753990
 153.7163390  69.5483070   8.7826360 152.8883530  68.3259830   8.4476060
 145.1931980  65.9722520   1.7787610 145.5234990  65.1043580   1.5466250
 145.6222980  66.1781040   2.6092570 145.6822190  66.8393110   4.5169240
 145.2453180  67.0193910   5.3493390 146.2499870  67.5967730   4.3750960
 161.3184370  66.3410110   8.8046550 160.7186360  66.4002670   8.0610470
 161.4478270  65.4015090   8.9343400 160.0036010  63.0662090   6.9022710
 159.1895850  63.4959250   7.1648500 160.4110210  63.6780500   6.2891760
 146.5522550  59.7365910   5.4161460 146.9195590  59.6493310   6.2957480
 145.9833370  58.9732460   5.3168320 161.3526410  58.2050290   8.4291930
 161.1212500  57.9763040   7.5289880 161.6130960  59.1249840   8.3836820
 146.1038550  56.6475000   9.3219880 145.2094600  56.6141760   9.6613590
 146.6436100  56.8461790  10.0871130 159.7914480  53.4306720  11.2071630
 160.6684660  53.4390120  11.5905630 159.8035320  52.6937560  10.5963980
 161.2377750  57.2836260   2.0959650 161.7615230  56.7898910   1.4649820
 161.8237170  57.4186620   2.8407220 161.4167470  57.3676130   5.6179200
 160.4670180  57.3339670   5.7324190 161.5980480  58.2776240   5.3828970
 146.6078260  50.9223330   3.6703100 147.2554450  50.3720710   3.2298260
 147.0280100  51.1766480   4.4918910 160.5030600  51.1164690   7.0272740
 161.1402820  51.7298830   7.3931930 160.6505490  51.1525350   6.0821970
 146.3610260  51.0779000   6.4128420 146.0125080  51.5342820   7.1786600
 146.0297960  50.1836130   6.4950850 147.9674630  64.2498600  10.5781610
 147.9244260  63.8791510  11.4596070 148.0985640  65.1876170  10.7183430
 151.6680660  65.8058190   6.1791330 151.4272020  66.0732750   5.2921850
 152.6083300  65.9763920   6.2342190 153.8735080  52.2690880   9.9347840
 153.8123970  52.8612710  10.6843250 154.8135460  52.1616840   9.7898100
 156.5109640  51.9260940   9.5740130 157.1250050  52.2440230   8.9121210
 157.0559200  51.4409530  10.1935990 162.9284820  67.8252570   6.9801970
 162.4343100  68.2221440   6.2629100 162.3198110  67.2001780   7.3739250
 147.0330900  50.6055200   9.6879190 147.5813890  50.4243250   8.9245300
 147.0986210  49.8149310  10.2235500 147.8062660  67.1960850   7.6979390
 147.2122980  67.0645550   8.4369430 147.7986500  66.3598990   7.2321490
 157.2517680  50.4893080   5.9009420 156.3777520  50.8228190   5.6982350
 157.1428430  50.0166260   6.7261290 158.1589660  52.6963950   7.2851140
 157.8303020  51.8815710   6.9052870 159.1071960  52.6533760   7.1616830
 160.6124270  68.4675990   4.2588710 160.1527240  69.2191800   3.8846730
 159.9836730  67.7482460   4.2003510 147.4374890  64.5619230   6.6487430
 146.7108950  63.9424520   6.5813380 147.4984040  64.9559840   5.7785510
 151.0419990  66.7764230   3.4336840 151.5585010  66.1651590   2.9085100
 151.6917370  67.2793010   3.9247850 153.7815490  67.6672720   4.2605820
 154.0693300  67.4127020   3.3838830 154.2938710  67.1150080   4.8511390
 154.9992500  51.4062920   4.8402330 154.2164290  51.8808420   5.1199090
 154.7055430  50.5017750   4.7315510 159.5513570  52.1086020   2.8851420
 159.9921660  52.0531120   2.0373020 159.2821160  53.0244030   2.9561600
 153.8487850  68.5888820  11.6274020 154.7755160  68.3533090  11.6709980
 153.8338280  69.4160820  11.1460050 151.0351460  51.2533570  11.3915900
 150.7535730  51.7567170  10.6276720 151.4171160  50.4555320  11.0258030
 157.6366920  50.6687150  11.9696370 157.5232370  50.9881760  12.8647890
 158.4536660  51.0699660  11.6733650 160.4165410  67.8158680  11.4515060
 161.2090730  67.3207910  11.2441020 160.7098560  68.4948820  12.0590670
 156.5425070  39.9136130  57.4305070 156.4619120  38.9990740  57.1596780
 156.1289490  40.4103200  56.7244780 154.6743110  41.6915150  59.3114340
 153.8985210  41.2115590  59.6012910 155.3256040  41.0120800  59.1370500
 158.6950540  46.0975340  58.0913470 158.2332070  45.3262580  58.4200640
 159.5076090  46.1241410  58.5965920 147.1000890  36.9636850  53.9732490
 146.2117590  37.3052820  53.8712370 147.3842080  36.7637170  53.0813320
 145.0633900  39.5642500  59.8572190 145.6350010  38.7964700  59.8575830
 145.0635440  39.8631260  58.9478800 154.9213850  48.3833350  57.7117460
 154.3025290  48.8390850  57.1411900 155.7765630  48.5384810  57.3107160
 154.1152100  44.3672340  59.3184500 154.0460380  43.4262280  59.1573630
 154.8771960  44.4573750  59.8907070 155.1457270  37.1742720  59.5453430
 155.5222090  36.3014600  59.4327100 155.0476780  37.5101420  58.6543870
 149.2762280  35.5468350  55.0070870 149.3829030  36.4472080  55.3139630
 148.3654640  35.4986320  54.7165520 158.9281390  34.6693160  56.4781770
 159.7491010  34.1789730  56.5207250 158.9615470  35.2590820  57.2313610
 151.1170010  38.5154720  59.3396050 151.6248230  39.0135690  59.9801070
 151.6483250  37.7389920  59.1635410 155.7877200  43.2672590  55.1049370
 155.1694470  43.7322040  54.5412090 156.3000450  43.9600070  55.5218880
 159.1642870  36.6093540  59.2509310 158.4598440  36.8978430  59.8312420
 159.5255030  37.4193650  58.8908870 145.1560400  43.9529120  52.4789000
 144.7788380  44.4416220  51.7473900 145.4133470  44.6254400  53.1095530
 162.2329790  36.0548330  59.6418520 161.2854700  36.0887310  59.7733950
 162.5579780  36.8687280  60.0267880 152.7649330  32.3545510  57.9374510
 153.0724310  31.7992400  57.2210010 151.8350030  32.4889970  57.7547500
 158.3164390  48.0712800  60.2281970 158.3291550  47.6675090  59.3604230
 157.7639610  48.8460090  60.1243400 159.6109810  44.7929020  55.3172140
 159.5006140  43.8503350  55.4421560 159.6078060  45.1544660  56.2034900
 155.1530090  40.4194340  54.6734630 154.2259370  40.3531720  54.9023100
 155.3054910  41.3574470  54.5589870 155.1399170  36.6911340  51.6701790
 154.2002840  36.8525300  51.7554250 155.4582430  37.4097020  51.1237780
 159.1827380  41.9814640  55.1769880 158.5639800  41.6434190  54.5296180
 159.1651830  41.3374400  55.8849070 150.7586730  40.9459080  57.4554360
 150.3543730  40.2336330  56.9600260 150.8449850  40.6012320  58.3442400
 151.2268430  44.6326640  59.6193570 150.9296720  44.0272110  58.9401350
 152.1768250  44.6703950  59.5082930 157.3592080  41.2201450  52.1842630
 157.7985360  40.3823880  52.0380450 158.0720500  41.8530850  52.2706770
 155.4687460  46.1597520  56.1523870 155.9083370  46.9021850  55.7379260
 155.4074350  46.4024090  57.0762830 160.9409220  32.4744260  50.4983670
 160.6281880  32.5671090  51.3982740 161.7021690  33.0525290  50.4481100
 147.4591360  39.8404060  54.9561010 147.3388960  40.5666150  54.3442280
 147.1492250  39.0706970  54.4788920 146.3424360  44.7119390  57.1735830
 145.9352440  44.8533980  56.3189430 147.2337370  44.4279550  56.9707040
 158.1357640  49.1466640  53.5086880 157.9758780  48.8569580  54.4068710
 157.9704350  48.3706770  52.9732110 150.6146020  48.9265170  55.2858500
 150.4388500  48.0100710  55.0726300 149.7601760  49.2852460  55.5256300
 157.8383770  46.6554200  52.0684880 157.1448930  46.6531490  51.4087160
 158.5806630  46.2313520  51.6379050 157.4033700  48.2816910  56.1433370
 157.8590650  47.5006290  56.4571990 157.7426220  48.9923730  56.6874550
 149.9255020  33.1839130  58.3384680 149.4823170  33.9648670  58.0069200
 150.4840010  33.5069020  59.0455620 153.0413840  32.8049830  53.2190510
 152.4168020  32.8009700  53.9443820 152.9543960  31.9380790  52.8226480
 151.9630920  33.7286460  60.1974280 152.2603250  34.6349290  60.1166300
 152.5116480  33.2405240  59.5833850 149.7169240  38.3072700  56.0665930
 149.4910160  38.0909870  56.9712550 148.9361770  38.7401160  55.7211900
 156.9467000  38.3136070  54.6656580 156.3475890  39.0371870  54.4820200
 157.4946610  38.2512850  53.8833030 155.5531870  36.9499610  56.6959860
 155.9461440  37.2671810  55.8828550 155.9148720  36.0711490  56.8104380
 144.5896040  33.5400410  58.9190060 144.3009090  34.1103270  59.6315040
 145.3341800  33.0604860  59.2821290 144.7766270  37.4820530  50.1292780
 144.6940940  38.4251290  50.2707770 144.4249330  37.3395440  49.2505130
 152.5764400  36.2159560  59.1963130 152.5800460  35.7749510  58.3467670
 153.4715520  36.5376890  59.3034950 148.4266780  36.0986050  58.1557340
 148.0866830  36.5761280  58.9124390 147.6644100  35.6451170  57.7958440
 152.6384550  37.2171640  52.1869890 152.7597370  37.1758120  53.1355710
 152.2533060  38.0795790  52.0316620 151.6506050  39.5272780  51.5853190
 151.0822950  39.0791030  50.9589100 152.3595050  39.8865560  51.0518340
 145.7412860  35.0205030  57.0722010 145.4559780  34.6560700  57.9100630
 145.6791720  34.2885490  56.4585150 149.1953530  43.5230970  53.8579600
 148.4215790  42.9828590  53.6978320 149.9248160  43.0037580  53.5197360
 159.9541510  42.5196330  59.6505990 160.6740630  43.0151620  59.2602100
 159.7523330  41.8414220  59.0059860 155.4151450  33.9134290  53.7935380
 154.6016060  33.4147460  53.7180690 155.2213400  34.7532540  53.3771730
 158.1299840  38.2853940  52.0897540 159.0179460  38.5971170  51.9148880
 158.1004930  37.4126190  51.6978120 149.2390930  43.1911350  57.4958410
 149.7569600  42.3879610  57.4415300 148.7874950  43.1290490  58.3375240
 154.1260430  44.4577630  52.7685710 154.4676130  45.2019860  52.2729030
 153.2973140  44.7708750  53.1310540 160.4014110  39.5965780  51.5577400
 160.3177830  40.0280000  50.7073840 161.1208300  40.0564130  51.9904220
 161.4301360  46.4508040  54.2859530 160.7877520  45.7963660  54.5603250
 161.0432020  46.8563130  53.5100200 157.0087840  43.7793470  58.1331220
 157.3611660  43.1821600  57.4732590 156.1250170  43.4537700  58.3039470
 153.0951120  44.5391160  55.5401630 153.7822250  45.0860370  55.9209220
 152.3083540  45.0831890  55.5751240 145.2343520  40.1563980  51.0318710
 146.1038370  40.4388780  51.3154630 144.7433840  40.9699850  50.9167520
 152.3978330  41.5437190  55.1526990 152.8541110  42.3542440  55.3787180
 152.0466540  41.2260330  55.9845480 148.2990110  31.8874840  55.6249510
 148.1704740  31.8792740  56.5734430 147.4752130  32.2257930  55.2740520
 159.8198740  45.3424500  50.8235880 159.5936320  44.6254940  51.4160520
 159.4294940  45.0936940  49.9857630 145.6014770  49.3691360  51.5980340
 145.9612410  49.9680700  50.9437610 145.4607110  49.9151250  52.3715370
 159.4014990  43.2596440  52.4850040 159.1136690  43.7209130  53.2727920
 160.1967160  42.7994210  52.7534260 151.6183390  46.7522560  52.4154010
 151.6093490  47.4852250  51.7998520 150.6981750  46.5054140  52.5080970
 147.2190030  41.9737450  53.1600770 146.6117980  42.7136350  53.1696070
 147.6939380  42.0636810  52.3338970 160.1584850  35.0945210  53.6445220
 159.5298010  35.1990880  52.9303450 159.6636770  35.3141990  54.4339100
 154.6042990  46.8150800  51.0779200 154.7054970  46.6114790  50.1481180
 153.7044730  46.5609080  51.2826980 152.1268880  37.3731160  55.0603100
 151.4185030  37.8417500  55.5016710 152.4113360  36.7153170  55.6948290
 156.1584310  34.0981820  56.4998890 156.0352090  34.1167950  55.5508400
 157.1068870  34.1460760  56.6197290 153.2461100  49.3337120  55.7726870
 153.5002600  49.2958510  54.8506240 152.2973580  49.2070450  55.7655120
 150.3303900  35.6816240  52.4353810 151.1794430  36.1186390  52.3694000
 149.9635170  35.9936500  53.2625870 159.2513680  40.2529000  57.3485380
 158.3103820  40.2679230  57.5233070 159.5657750  39.4664960  57.7945680
 149.2295320  41.9348600  50.9089340 149.9958590  41.8229960  51.4714770
 149.3070010  41.2386570  50.2566110 147.9242080  39.3673670  51.5922230
 148.0045670  38.4201180  51.7039630 148.8161830  39.6980550  51.6982890
 161.2539260  47.4237850  59.0239640 161.3786680  48.2469020  59.4963450
 162.1204820  47.2128580  58.6763790 148.7256790  49.5169060  58.6956770
 149.4619270  48.9684520  58.9665340 149.1097710  50.3825070  58.5562760
 145.6102270  45.5842630  54.5698280 144.6842050  45.8263770  54.5603690
 146.0758700  46.4116890  54.4483030 151.8359100  48.6899370  50.5182340
 152.6287710  48.9788200  50.0664130 151.3163450  48.2591540  49.8394820
 160.8889270  47.9169500  51.9419080 160.6030780  47.5034640  51.1273260
 160.6908820  48.8457210  51.8219600 152.3536500  43.9102780  50.3824690
 152.2487140  43.2955130  51.1086070 152.1860720  43.3868670  49.5987700
 155.5939230  42.9722810  50.9866680 155.0449330  43.4192110  51.6309420
 156.2158490  42.4672060  51.5104350 151.2614350  41.9313730  52.8831980
 151.6830770  41.7653600  53.7263370 151.3865190  41.1213960  52.3887120
 153.7741990  40.9551340  50.1309080 154.2947650  40.2400360  49.7650230
 154.4210390  41.5937210  50.4309590 150.1573250  38.0046960  49.8290140
 149.9562310  37.1414320  50.1903480 149.9865300  37.9180320  48.8911740
 157.6361560  32.8155190  52.3577020 157.9163850  31.9723090  52.7136440
 156.8627290  33.0478300  52.8715770 148.9556050  35.1047580  49.8168020
 149.2581950  35.1115010  48.9087170 149.6950640  34.7545440  50.3135680
 152.1740980  34.0482200  50.8024220 151.8262980  33.3706190  50.2226670
 152.3753750  33.5871710  51.6167610 154.3390020  49.0362950  52.4210820
 155.2340810  49.3747920  52.4429580 154.3707650  48.3142360  51.7935100
 147.9786180  44.4090000  50.6497820 148.4161050  44.9519670  51.3055400
 148.4633910  43.5836950  50.6594160 145.1931980  47.1979030  58.1018080
 145.5234990  46.3300090  57.8696720 145.6222980  47.4037550  58.9323040
 149.7893900  45.5288040  55.7620050 149.4889440  45.4053010  56.6623960
 149.6831390  44.6696630  55.3535780 162.5585820  45.3084440  50.4646730
 161.7278780  45.3761090  50.9353960 162.7357650  46.1988560  50.1613590
 162.0142280  42.0531920  52.9680930 162.7761190  42.6228570  53.0740620
 162.0296650  41.4859120  53.7389240 145.5146620  40.5769850  57.1988590
 144.8595460  40.3081490  56.5548290 146.3524570  40.4674330  56.7490570
 163.0202250  42.9082020  57.8122860 163.3911080  42.1249340  57.4058830
 163.6604180  43.5971120  57.6340160 162.0661450  42.3466290  50.1253450
 162.3410290  43.2545170  49.9972670 161.8772190  42.2828820  51.0615440
 158.4637060  35.3711140  51.4207080 158.8821940  35.1842120  50.5803740
 158.1573120  34.5190190  51.7310010 161.9626790  40.2835280  55.1182880
 161.5870390  39.5163210  54.6864170 161.2329910  40.6657980  55.6057810
 144.7284700  37.7868780  53.1413920 143.8248780  38.0498980  52.9665580
 145.2125320  38.0579950  52.3613880 161.2377750  38.5092770  58.4190120
 161.7615230  38.0155420  57.7880290 161.8237170  38.6443130  59.1637690
 147.2711910  36.8434320  51.0508300 147.9803610  36.4217540  50.5655580
 146.5551850  36.9109550  50.4191650 146.9186070  32.8973650  50.0910950
 147.6414200  33.4382590  50.4092170 147.1910590  32.6237070  49.2152490
 160.7277720  37.7666120  54.3582530 161.2236840  37.5336990  55.1431410
 160.5293790  36.9277960  53.9420170 162.1564880  36.4027070  56.8920210
 162.0464160  36.2483110  57.8302480 162.9172470  35.8748010  56.6495620
 163.0455150  34.2334990  50.1326350 163.9704460  34.1016170  49.9244640
 163.0230940  34.3127810  51.0862800 163.1193640  35.0045650  52.7583060
 162.3245140  34.9390770  53.2875970 163.3236920  35.9396290  52.7468410
 160.0612060  49.0437200  56.7521450 160.6571130  48.7221770  56.0755870
 160.3190210  48.5709020  57.5434720 151.0419990  48.0020740  59.7567310
 151.5585010  47.3908100  59.2315570 151.6917370  48.5049520  60.2478320
 159.5513570  33.3342530  59.2081890 159.9921660  33.2787630  58.3603490
 159.2821160  34.2500540  59.2792070 161.4152140  32.9657770  57.2190710
 161.3540540  32.0218990  57.0721730 162.1944170  33.0737860  57.7644170
 145.7204890  49.1050130  56.1814660 145.5526930  48.4720810  56.8796550
 144.8539400  49.3109530  55.8308850 146.3432910  32.9366910  53.6846520
 147.1012270  33.0495790  53.1110550 145.8810080  33.7736110  53.6389950
 152.8846720  35.0506180  56.6748830 152.0721230  34.6763070  56.3344710
 153.3888360  34.2951260  56.9770020 157.3871700  31.7148630  57.9131900
 157.9901070  32.2868840  58.3880420 156.6464690  32.2788070  57.6905800
 160.5306300  32.1170190  53.1872180 160.7256930  33.0153640  53.4539610
 159.7436170  31.8857270  53.6805130 147.3267590  47.7983360  53.6264800
 146.8015210  48.1791390  52.9226760 147.2512170  48.4234130  54.3474510
 148.7158060  33.4630960  52.2248490 149.2450820  32.6760760  52.0956440
 149.3486380  34.1422150  52.4584020 150.9095900  33.2006100  55.2793880
 150.2798640  32.4993410  55.4464010 150.3701040  33.9610230  55.0627040
 162.0832910  49.3570900  54.9478740 162.2585100  48.6708640  54.3039660
 161.3854480  49.8817950  54.5555410 149.9260560  49.7465740  52.5014050
 150.6579380  49.4625020  51.9537940 150.1854230  49.5079020  53.3913430
 149.0875350  45.8630470  52.5060380 148.4584230  46.3315570  53.0546210
 149.2023180  45.0179690  52.9406570 156.5425070  39.9136130  38.6561580
 156.4619120  38.9990740  38.3853290 156.1289490  40.4103200  37.9501290
 154.6743110  41.6915150  40.5370850 153.8985210  41.2115590  40.8269420
 155.3256040  41.0120800  40.3627010 148.6908940  42.0034960  41.4146610
 147.8593820  41.7483670  41.8143120 149.2989920  42.0745730  42.1504530
 158.6950540  46.0975340  39.3169980 158.2332070  45.3262580  39.6457150
 159.5076090  46.1241410  39.8222430 148.6710200  46.0375050  41.6104630
 148.9738240  45.1472790  41.4314850 149.4153790  46.5945270  41.3826880
 145.0633900  39.5642500  41.0828700 145.6350010  38.7964700  41.0832340
 145.0635440  39.8631260  40.1735310 154.9213850  48.3833350  38.9373970
 154.3025290  48.8390850  38.3668410 155.7765630  48.5384810  38.5363670
 154.1152100  44.3672340  40.5441010 154.0460380  43.4262280  40.3830140
 154.8771960  44.4573750  41.1163580 146.3058770  34.9726860  42.8697630
 146.1261610  34.0752610  43.1500390 145.9038850  35.5198730  43.5444580
 155.1457270  37.1742720  40.7709940 155.5222090  36.3014600  40.6583610
 155.0476780  37.5101420  39.8800380 158.9281390  34.6693160  37.7038280
 159.7491010  34.1789730  37.7463760 158.9615470  35.2590820  38.4570120
 146.9245440  37.4687360  41.4779970 147.6055550  37.7325730  42.0967370
 146.6093490  36.6288230  41.8117980 151.1170010  38.5154720  40.5652560
 151.6248230  39.0135690  41.2057580 151.6483250  37.7389920  40.3891920
 163.2180940  36.6859910  44.2681910 162.5133110  37.0741620  43.7497020
 163.4838860  37.3810200  44.8702840 149.4006110  33.1553280  44.8315980
 149.4024550  33.6725670  44.0261880 148.5710420  32.6783460  44.8085910
 155.7877200  43.2672590  36.3305880 155.1694470  43.7322040  35.7668600
 156.3000450  43.9600070  36.7475390 150.6508960  42.7948460  43.0089480
 150.3178340  43.4217380  43.6510550 150.8275640  43.3210340  42.2291150
 159.1642870  36.6093540  40.4765820 158.4598440  36.8978430  41.0568930
 159.5255030  37.4193650  40.1165380 149.0821440  34.8663240  42.8386430
 149.4238250  35.7105290  42.5440300 148.1437250  35.0146980  42.9551770
 149.8628060  44.7629260  44.8238660 150.4802060  45.4380340  44.5423110
 149.0021180  45.1717240  44.7326160 145.1560400  43.9529120  33.7045510
 144.7788380  44.4416220  32.9730410 145.4133470  44.6254400  34.3352040
 160.7805650  46.2268670  42.7393300 160.0969170  46.8967780  42.7309970
 161.3199940  46.4249320  41.9738160 162.2329790  36.0548330  40.8675030
 161.2854700  36.0887310  40.9990460 162.5579780  36.8687280  41.2524390
 152.7649330  32.3545510  39.1631020 153.0724310  31.7992400  38.4466520
 151.8350030  32.4889970  38.9804010 158.3164390  48.0712800  41.4538480
 158.3291550  47.6675090  40.5860740 157.7639610  48.8460090  41.3499910
 159.6109810  44.7929020  36.5428650 159.5006140  43.8503350  36.6678070
 159.6078060  45.1544660  37.4291410 157.7149830  42.9742640  42.7821090
 158.1318620  42.7602750  41.9474550 158.4389650  43.2315430  43.3529710
 155.1530090  40.4194340  35.8991140 154.2259370  40.3531720  36.1279610
 155.3054910  41.3574470  35.7846380 161.6611930  41.3729860  42.8737330
 160.8330560  41.4422950  42.3987460 162.2562410  41.9584170  42.4053160
 159.1827380  41.9814640  36.4026390 158.5639800  41.6434190  35.7552690
 159.1651830  41.3374400  37.1105580 158.6253940  38.1599180  43.8192200
 158.2125120  38.9852890  44.0732190 157.8929890  37.5744220  43.6268560
 150.7586730  40.9459080  38.6810870 150.3543730  40.2336330  38.1856770
 150.8449850  40.6012320  39.5698910 151.2268430  44.6326640  40.8450080
 150.9296720  44.0272110  40.1657860 152.1768250  44.6703950  40.7339440
 149.4715350  37.7202290  42.4609910 150.0229940  37.8297630  41.6863160
 149.9858860  38.0939890  43.1765140 159.3154040  48.2058510  44.5073180
 158.8384600  49.0130700  44.3145790 158.6315830  47.5536840  44.6599390
 150.3186860  44.3708330  47.4957880 149.4215390  44.5948300  47.7431280
 150.3439730  44.4943270  46.5469280 157.3592080  41.2201450  33.4099140
 157.7985360  40.3823880  33.2636960 158.0720500  41.8530850  33.4963280
 149.1458080  41.2421650  46.0715250 149.0065850  42.1144450  46.4402650
 148.2639440  40.8994460  45.9263190 155.4687460  46.1597520  37.3780380
 155.9083370  46.9021850  36.9635770 155.4074350  46.4024090  38.3019340
 150.9438430  47.1843350  48.2800400 150.9153860  47.5886300  47.4128830
 150.7803400  46.2553710  48.1172000 160.9409220  32.4744260  31.7240180
 160.6281880  32.5671090  32.6239250 161.7021690  33.0525290  31.6737610
 147.4591360  39.8404060  36.1817520 147.3388960  40.5666150  35.5698790
 147.1492250  39.0706970  35.7045430 162.8953250  47.9670450  49.5764570
 163.3712970  48.4453340  50.2553650 163.5160410  47.8987940  48.8510070
 145.0976730  43.0119200  41.9886160 145.1757150  43.1467970  41.0441880
 145.7118410  42.3035090  42.1814280 146.3424360  44.7119390  38.3992340
 145.9352440  44.8533980  37.5445940 147.2337370  44.4279550  38.1963550
 162.2986500  45.1583300  46.7364580 162.4249560  44.9195180  45.8181760
 162.3407880  44.3267840  47.2086660 156.1603240  48.8611300  45.3059390
 156.6747910  48.7719310  46.1081820 155.3172320  49.2071000  45.5987300
 158.1357640  49.1466640  34.7343390 157.9758780  48.8569580  35.6325220
 157.9704350  48.3706770  34.1988620 150.6146020  48.9265170  36.5115010
 150.4388500  48.0100710  36.2982810 149.7601760  49.2852460  36.7512810
 157.8383770  46.6554200  33.2941390 157.1448930  46.6531490  32.6343670
 158.5806630  46.2313520  32.8635560 157.4033700  48.2816910  37.3689880
 157.8590650  47.5006290  37.6828500 157.7426220  48.9923730  37.9131060
 162.1510510  37.2115760  47.7014320 161.5354780  37.7195430  47.1729780
 161.8306930  36.3114090  47.6440260 145.1536250  44.0533370  44.5280620
 145.3167290  43.5838730  43.7099990 145.6188700  43.5456930  45.1929460
 149.9255020  33.1839130  39.5641190 149.4823170  33.9648670  39.2325710
 150.4840010  33.5069020  40.2712130 154.2124830  36.0507650  45.1676510
 153.7504200  36.2590670  45.9796450 153.8102940  35.2367000  44.8647180
 159.2129340  37.2716600  46.2973170 158.3622930  36.9722350  46.6182240
 159.0531130  37.5158610  45.3856990 156.3079050  38.7718350  48.3971960
 156.6332460  37.9382100  48.0574190 157.0959380  39.2946870  48.5450290
 151.9630920  33.7286460  41.4230790 152.2603250  34.6349290  41.3422810
 152.5116480  33.2405240  40.8090360 149.7169240  38.3072700  37.2922440
 149.4910160  38.0909870  38.1969060 148.9361770  38.7401160  36.9468410
 156.9467000  38.3136070  35.8913090 156.3475890  39.0371870  35.7076710
 157.4946610  38.2512850  35.1089540 152.1568450  39.2058280  47.9582710
 152.0612050  38.2653010  47.8083110 153.0000430  39.4273350  47.5630780
 155.5531870  36.9499610  37.9216370 155.9461440  37.2671810  37.1085060
 155.9148720  36.0711490  38.0360890 147.2878990  35.6171950  46.1116490
 146.8942380  36.4647160  46.3189270 146.5997390  34.9798320  46.3025130
 153.8624040  35.7006920  49.1813230 153.1722360  35.5079120  49.8159320
 154.6056340  35.9841560  49.7137530 144.5896040  33.5400410  40.1446570
 144.3009090  34.1103270  40.8571550 145.3341800  33.0604860  40.5077800
 144.7766270  37.4820530  31.3549290 144.6940940  38.4251290  31.4964280
 144.4249330  37.3395440  30.4761640 156.1387010  39.5405360  42.0167150
 155.4068130  40.0492170  42.3657250 155.7411350  38.7235340  41.7155930
 152.5764400  36.2159560  40.4219640 152.5800460  35.7749510  39.5724180
 153.4715520  36.5376890  40.5291460 148.4266780  36.0986050  39.3813850
 148.0866830  36.5761280  40.1380900 147.6644100  35.6451170  39.0214950
 156.6012920  34.9939040  41.4290090 156.6185660  35.4447690  42.2731940
 156.3528500  34.0944680  41.6423530 160.0283670  32.4071220  47.2676470
 160.3529440  31.6760880  47.7934450 160.0640180  32.0884860  46.3657460
 146.7275230  43.4284800  46.6876430 146.3430020  42.7878470  47.2859390
 147.0387420  44.1320920  47.2571160 152.8772370  40.2761340  42.1685050
 153.2442500  39.8019910  42.9146390 152.6877430  41.1502910  42.5093390
 145.7412860  35.0205030  38.2978520 145.4559780  34.6560700  39.1357140
 145.6791720  34.2885490  37.6841660 150.6671740  39.3169980  44.4869260
 150.3628810  40.1961960  44.7119620 151.6218200  39.3769770  44.5226700
 149.1953530  43.5230970  35.0836110 148.4215790  42.9828590  34.9234830
 149.9248160  43.0037580  34.7453870 159.9541510  42.5196330  40.8762500
 160.6740630  43.0151620  40.4858610 159.7523330  41.8414220  40.2316370
 155.3360310  42.5905390  46.7631500 155.2697620  41.6701060  46.5089090
 154.7065450  42.6880830  47.4776140 158.1299840  38.2853940  33.3154050
 159.0179460  38.5971170  33.1405390 158.1004930  37.4126190  32.9234630
 149.2390930  43.1911350  38.7214920 149.7569600  42.3879610  38.6671810
 148.7874950  43.1290490  39.5631750 154.1260430  44.4577630  33.9942220
 154.4676130  45.2019860  33.4985540 153.2973140  44.7708750  34.3567050
 146.7235470  40.1572720  45.6340620 146.3650410  40.8226570  46.2213960
 146.4290030  39.3256270  46.0053240 149.9248590  40.6156960  48.5180170
 149.6248730  40.7614140  47.6207990 150.6959830  40.0562250  48.4253560
 155.2677040  45.4125960  46.5135300 155.2821580  44.4806920  46.2954210
 154.5602140  45.4985720  47.1525070 160.4014110  39.5965780  32.7833910
 160.3177830  40.0280000  31.9330350 161.1208300  40.0564130  33.2160730
 161.4788250  42.0533300  45.8603880 160.7536440  42.6462080  45.6633270
 162.0063710  42.0456840  45.0617250 161.4301360  46.4508040  35.5116040
 160.7877520  45.7963660  35.7859760 161.0432020  46.8563130  34.7356710
 157.0087840  43.7793470  39.3587730 157.3611660  43.1821600  38.6989100
 156.1250170  43.4537700  39.5295980 153.0951120  44.5391160  36.7658140
 153.7822250  45.0860370  37.1465730 152.3083540  45.0831890  36.8007750
 152.3978330  41.5437190  36.3783500 152.8541110  42.3542440  36.6043690
 152.0466540  41.2260330  37.2101990 154.7010940  47.0543530  43.6075800
 155.3453160  47.2602910  44.2849220 155.0640380  46.2931930  43.1546650
 148.2990110  31.8874840  36.8506020 148.1704740  31.8792740  37.7990940
 147.4752130  32.2257930  36.4997030 155.9743020  45.0575880  42.3253250
 156.6165250  44.3569040  42.4385420 156.4992370  45.8374320  42.1450140
 159.8198740  45.3424500  32.0492390 159.5936320  44.6254940  32.6417030
 159.4294940  45.0936940  31.2114140 157.7480640  45.8570780  45.5289310
 158.0836880  46.4437470  46.2067230 156.8280980  45.7263490  45.7587100
 145.6014770  49.3691360  32.8236850 145.9612410  49.9680700  32.1694120
 145.4607110  49.9151250  33.5971880 145.2984040  33.6465960  46.3112720
 144.5842560  33.8462880  46.9165330 145.7179080  32.8705530  46.6827520
 159.4014990  43.2596440  33.7106550 159.1136690  43.7209130  34.4984430
 160.1967160  42.7994210  33.9790770 145.5856630  47.6346220  47.2979250
 145.6947750  46.6940960  47.1574640 144.9337190  47.9000970  46.6492980
 153.5769220  45.9062110  48.6977370 153.2566090  45.1871350  49.2423060
 152.9027580  46.5817180  48.7713430 151.6183390  46.7522560  33.6410520
 151.6093490  47.4852250  33.0255030 150.6981750  46.5054140  33.7337480
 156.7922820  36.1388270  44.0614170 157.1603640  35.3183480  44.3893740
 155.9321020  36.1990160  44.4769820 160.1584850  35.0945210  34.8701730
 159.5298010  35.1990880  34.1559960 159.6636770  35.3141990  35.6595610
 154.6042990  46.8150800  32.3035710 154.7054970  46.6114790  31.3737690
 153.7044730  46.5609080  32.5083490 153.7524810  38.7927860  44.2852140
 154.2510060  39.2673680  44.9503990 153.8947760  37.8691380  44.4922170
 156.1584310  34.0981820  37.7255400 156.0352090  34.1167950  36.7764910
 157.1068870  34.1460760  37.8453800 153.2461100  49.3337120  36.9983380
 153.5002600  49.2958510  36.0762750 152.2973580  49.2070450  36.9911630
 160.9591670  35.0095820  45.1280530 160.4565270  35.7501220  45.4674340
 161.7748330  35.3979820  44.8117320 159.2513680  40.2529000  38.5741890
 158.3103820  40.2679230  38.7489580 159.5657750  39.4664960  39.0202190
 161.2539260  47.4237850  40.2496150 161.3786680  48.2469020  40.7219960
 162.1204820  47.2128580  39.9020300 148.7256790  49.5169060  39.9213280
 149.4619270  48.9684520  40.1921850 149.1097710  50.3825070  39.7819270
 145.6102270  45.5842630  35.7954790 144.6842050  45.8263770  35.7860200
 146.0758700  46.4116890  35.6739540 147.7315070  48.7015130  49.1098860
 148.5327800  49.0227180  49.5234260 147.2166890  48.3410710  49.8318770
 151.8359100  48.6899370  31.7438850 152.6287710  48.9788200  31.2920640
 151.3163450  48.2591540  31.0651330 156.5679700  44.8095000  49.0574270
 155.9617860  44.8326600  48.3170020 156.2633810  44.0778040  49.5941520
 157.9980070  48.5375290  47.6683680 158.9501820  48.4533310  47.6183920
 157.8508290  49.2017000  48.3417470 160.8889270  47.9169500  33.1675590
 160.6030780  47.5034640  32.3529770 160.6908820  48.8457210  33.0476110
 145.4512880  41.1888590  48.0534910 145.9551900  40.6095870  48.6251140
 144.7120300  41.4728820  48.5911280 152.5050820  42.5959580  47.5870430
 151.7396490  43.1644580  47.5025100 152.6866780  42.3035790  46.6938660
 155.5939230  42.9722810  32.2123190 155.0449330  43.4192110  32.8565930
 156.2158490  42.4672060  32.7360860 159.6474170  44.3264910  48.1445450
 160.3883640  44.6640670  47.6412910 158.8846850  44.4956970  47.5915220
 147.4835960  39.3318180  48.9484980 147.5241300  39.0332050  49.8570210
 148.3381460  39.7325790  48.7892500 149.4241770  37.9110280  46.9159470
 148.8938230  37.4201230  46.2882810 150.0929840  38.3394480  46.3817400
 158.3219830  42.3779740  46.6800660 158.7360850  42.5324820  47.5291080
 157.3870830  42.5034960  46.8426440 158.7942000  39.7175900  48.6839810
 159.3762770  38.9628220  48.5960290 158.9703770  40.2483340  47.9071290
 149.9114070  34.8772650  46.9956760 149.8170940  34.2593400  46.2707630
 149.3311460  35.6038940  46.7686670 152.6775510  33.4345890  44.0284150
 152.2292810  33.4570150  43.1829700 152.0440710  33.0364910  44.6254450
 153.0835060  42.3300220  44.6496590 153.5023170  43.1732950  44.4772830
 152.1643690  42.4672260  44.4203370 155.4198960  40.0616400  46.0334430
 155.5395170  39.4657540  46.7729270 156.2792960  40.0986090  45.6135730
 157.7586860  40.6153590  44.6096940 157.2322080  41.1396210  44.0062080
 158.1018200  41.2480980  45.2406670 150.9342480  48.6353230  45.7654320
 150.3963570  49.3599290  45.4463020 151.1876440  48.1583570  44.9751660
 152.1867730  36.6037750  47.2910250 152.7767420  36.2953600  47.9788070
 151.3687970  36.1317500  47.4470150 157.0061160  36.2203560  47.5243270
 156.3176680  35.5585100  47.4593260 157.7267180  35.7741830  47.9691730
 157.6361560  32.8155190  33.5833530 157.9163850  31.9723090  33.9392950
 156.8627290  33.0478300  34.0972280 153.7904690  49.8704440  46.0240970
 153.7163390  50.7739580  46.3313340 152.8883530  49.5516340  45.9963040
 154.3390020  49.0362950  33.6467330 155.2340810  49.3747920  33.6686090
 154.3707650  48.3142360  33.0191610 145.1931980  47.1979030  39.3274590
 145.5234990  46.3300090  39.0953230 145.6222980  47.4037550  40.1579550
 149.7893900  45.5288040  36.9876560 149.4889440  45.4053010  37.8880470
 149.6831390  44.6696630  36.5792290 145.6822190  48.0649620  42.0656220
 145.2453180  48.2450420  42.8980370 146.2499870  48.8224240  41.9237940
 161.3184370  47.5666620  46.3533530 160.7186360  47.6259180  45.6097450
 161.4478270  46.6271600  46.4830380 162.5585820  45.3084440  31.6903240
 161.7278780  45.3761090  32.1610470 162.7357650  46.1988560  31.3870100
 145.5146620  40.5769850  38.4245100 144.8595460  40.3081490  37.7804800
 146.3524570  40.4674330  37.9747080 163.0202250  42.9082020  39.0379370
 163.3911080  42.1249340  38.6315340 163.6604180  43.5971120  38.8596670
 160.0036010  44.2918600  44.4509690 159.1895850  44.7215760  44.7135480
 160.4110210  44.9037010  43.8378740 162.0661450  42.3466290  31.3509960
 162.3410290  43.2545170  31.2229180 161.8772190  42.2828820  32.2871950
 158.4637060  35.3711140  32.6463590 158.8821940  35.1842120  31.8060250
 158.1573120  34.5190190  32.9566520 161.9626790  40.2835280  36.3439390
 161.5870390  39.5163210  35.9120680 161.2329910  40.6657980  36.8314320
 146.5522550  40.9622420  42.9648440 146.9195590  40.8749820  43.8444460
 145.9833370  40.1988970  42.8655300 161.3526410  39.4306800  45.9778910
 161.1212500  39.2019550  45.0776860 161.6130960  40.3506350  45.9323800
 146.1038550  37.8731510  46.8706860 145.2094600  37.8398270  47.2100570
 146.6436100  38.0718300  47.6358110 159.7914480  34.6563230  48.7558610
 160.6684660  34.6646630  49.1392610 159.8035320  33.9194070  48.1450960
 161.2377750  38.5092770  39.6446630 161.7615230  38.0155420  39.0136800
 161.8237170  38.6443130  40.3894200 161.4167470  38.5932640  43.1666180
 160.4670180  38.5596180  43.2811170 161.5980480  39.5032750  42.9315950
 160.7277720  37.7666120  35.5839040 161.2236840  37.5336990  36.3687920
 160.5293790  36.9277960  35.1676680 146.6078260  32.1479840  41.2190080
 147.2554450  31.5977220  40.7785240 147.0280100  32.4022990  42.0405890
 162.1564880  36.4027070  38.1176720 162.0464160  36.2483110  39.0558990
 162.9172470  35.8748010  37.8752130 160.5030600  32.3421200  44.5759720
 161.1402820  32.9555340  44.9418910 160.6505490  32.3781860  43.6308950
 163.0455150  34.2334990  31.3582860 163.9704460  34.1016170  31.1501150
 163.0230940  34.3127810  32.3119310 163.1193640  35.0045650  33.9839570
 162.3245140  34.9390770  34.5132480 163.3236920  35.9396290  33.9724920
 160.0612060  49.0437200  37.9777960 160.6571130  48.7221770  37.3012380
 160.3190210  48.5709020  38.7691230 146.3610260  32.3035510  43.9615400
 146.0125080  32.7599330  44.7273580 146.0297960  31.4092640  44.0437830
 147.9674630  45.4755110  48.1268590 147.9244260  45.1048020  49.0083050
 148.0985640  46.4132680  48.2670410 151.6680660  47.0314700  43.7278310
 151.4272020  47.2989260  42.8408830 152.6083300  47.2020430  43.7829170
 153.8735080  33.4947390  47.4834820 153.8123970  34.0869220  48.2330230
 154.8135460  33.3873350  47.3385080 156.5109640  33.1517450  47.1227110
 157.1250050  33.4696740  46.4608190 157.0559200  32.6666040  47.7422970
 162.9284820  49.0509080  44.5288950 162.4343100  49.4477950  43.8116080
 162.3198110  48.4258290  44.9226230 147.0330900  31.8311710  47.2366170
 147.5813890  31.6499760  46.4732280 147.0986210  31.0405820  47.7722480
 147.8062660  48.4217360  45.2466370 147.2122980  48.2902060  45.9856410
 147.7986500  47.5855500  44.7808470 157.2517680  31.7149590  43.4496400
 156.3777520  32.0484700  43.2469330 157.1428430  31.2422770  44.2748270
 158.1589660  33.9220460  44.8338120 157.8303020  33.1072220  44.4539850
 159.1071960  33.8790270  44.7103810 160.6124270  49.6932500  41.8075690
 160.1527240  50.4448310  41.4333710 159.9836730  48.9738970  41.7490490
 147.4374890  45.7875740  44.1974410 146.7108950  45.1681030  44.1300360
 147.4984040  46.1816350  43.3272490 151.0419990  48.0020740  40.9823820
 151.5585010  47.3908100  40.4572080 151.6917370  48.5049520  41.4734830
 153.7815490  48.8929230  41.8092800 154.0693300  48.6383530  40.9325810
 154.2938710  48.3406590  42.3998370 154.9992500  32.6319430  42.3889310
 154.2164290  33.1064930  42.6686070 154.7055430  31.7274260  42.2802490
 159.5513570  33.3342530  40.4338400 159.9921660  33.2787630  39.5860000
 159.2821160  34.2500540  40.5048580 161.4152140  32.9657770  38.4447220
 161.3540540  32.0218990  38.2978240 162.1944170  33.0737860  38.9900680
 145.7204890  49.1050130  37.4071170 145.5526930  48.4720810  38.1053060
 144.8539400  49.3109530  37.0565360 146.3432910  32.9366910  34.9103030
 147.1012270  33.0495790  34.3367060 145.8810080  33.7736110  34.8646460
 152.8846720  35.0506180  37.9005340 152.0721230  34.6763070  37.5601220
 153.3888360  34.2951260  38.2026530 157.3871700  31.7148630  39.1388410
 157.9901070  32.2868840  39.6136930 156.6464690  32.2788070  38.9162310
 160.5306300  32.1170190  34.4128690 160.7256930  33.0153640  34.6796120
 159.7436170  31.8857270  34.9061640 147.3267590  47.7983360  34.8521310
 146.8015210  48.1791390  34.1483270 147.2512170  48.4234130  35.5731020
 150.9095900  33.2006100  36.5050390 150.2798640  32.4993410  36.6720520
 150.3701040  33.9610230  36.2883550 153.8487850  49.8145330  49.1761000
 154.7755160  49.5789600  49.2196960 153.8338280  50.6417330  48.6947030
 162.0832910  49.3570900  36.1735250 162.2585100  48.6708640  35.5296170
 161.3854480  49.8817950  35.7811920 151.0351460  32.4790080  48.9402880
 150.7535730  32.9823680  48.1763700 151.4171160  31.6811830  48.5745010
 149.9260560  49.7465740  33.7270560 150.6579380  49.4625020  33.1794450
 150.1854230  49.5079020  34.6169940 149.0875350  45.8630470  33.7316890
 148.4584230  46.3315570  34.2802720 149.2023180  45.0179690  34.1663080
 157.6366920  31.8943660  49.5183350 157.5232370  32.2138270  50.4134870
 158.4536660  32.2956170  49.2220630 160.4165410  49.0415190  49.0002040
 161.2090730  48.5464420  48.7928000 160.7098560  49.7205330  49.6077650
 158.6950540  46.0975340  20.5426490 158.2332070  45.3262580  20.8713660
 159.5076090  46.1241410  21.0478940 154.9213850  48.3833350  20.1630480
 154.3025290  48.8390850  19.5924920 155.7765630  48.5384810  19.7620180
 154.1152100  44.3672340  21.7697520 154.0460380  43.4262280  21.6086650
 154.8771960  44.4573750  22.3420090 158.9281390  34.6693160  18.9294790
 159.7491010  34.1789730  18.9720270 158.9615470  35.2590820  19.6826630
 163.2180940  36.6859910  25.4938420 162.5133110  37.0741620  24.9753530
 163.4838860  37.3810200  26.0959350 149.4006110  33.1553280  26.0572490
 149.4024550  33.6725670  25.2518390 148.5710420  32.6783460  26.0342420
 162.2329790  36.0548330  22.0931540 161.2854700  36.0887310  22.2246970
 162.5579780  36.8687280  22.4780900 158.3164390  48.0712800  22.6794990
 158.3291550  47.6675090  21.8117250 157.7639610  48.8460090  22.5756420
 159.3154040  48.2058510  25.7329690 158.8384600  49.0130700  25.5402300
 158.6315830  47.5536840  25.8855900 155.4687460  46.1597520  18.6036890
 155.9083370  46.9021850  18.1892280 155.4074350  46.4024090  19.5275850
 160.9409220  32.4744260  12.9496690 160.6281880  32.5671090  13.8495760
 161.7021690  33.0525290  12.8994120 162.8953250  47.9670450  30.8021080
 163.3712970  48.4453340  31.4810160 163.5160410  47.8987940  30.0766580
 162.2986500  45.1583300  27.9621090 162.4249560  44.9195180  27.0438270
 162.3407880  44.3267840  28.4343170 156.1603240  48.8611300  26.5315900
 156.6747910  48.7719310  27.3338330 155.3172320  49.2071000  26.8243810
 158.1357640  49.1466640  15.9599900 157.9758780  48.8569580  16.8581730
 157.9704350  48.3706770  15.4245130 150.6146020  48.9265170  17.7371520
 150.4388500  48.0100710  17.5239320 149.7601760  49.2852460  17.9769320
 157.8383770  46.6554200  14.5197900 157.1448930  46.6531490  13.8600180
 158.5806630  46.2313520  14.0892070 157.4033700  48.2816910  18.5946390
 157.8590650  47.5006290  18.9085010 157.7426220  48.9923730  19.1387570
 162.1510510  37.2115760  28.9270830 161.5354780  37.7195430  28.3986290
 161.8306930  36.3114090  28.8696770 147.2878990  35.6171950  27.3373000
 146.8942380  36.4647160  27.5445780 146.5997390  34.9798320  27.5281640
 144.7766270  37.4820530  12.5805800 144.6940940  38.4251290  12.7220790
 144.4249330  37.3395440  11.7018150 160.0283670  32.4071220  28.4932980
 160.3529440  31.6760880  29.0190960 160.0640180  32.0884860  27.5913970
 149.1953530  43.5230970  16.3092620 148.4215790  42.9828590  16.1491340
 149.9248160  43.0037580  15.9710380 154.1260430  44.4577630  15.2198730
 154.4676130  45.2019860  14.7242050 153.2973140  44.7708750  15.5823560
 155.2677040  45.4125960  27.7391810 155.2821580  44.4806920  27.5210720
 154.5602140  45.4985720  28.3781580 161.4301360  46.4508040  16.7372550
 160.7877520  45.7963660  17.0116270 161.0432020  46.8563130  15.9613220
 153.0951120  44.5391160  17.9914650 153.7822250  45.0860370  18.3722240
 152.3083540  45.0831890  18.0264260 145.2343520  40.1563980  13.4831730
 146.1038370  40.4388780  13.7667650 144.7433840  40.9699850  13.3680540
 154.7010940  47.0543530  24.8332310 155.3453160  47.2602910  25.5105730
 155.0640380  46.2931930  24.3803160 155.9743020  45.0575880  23.5509760
 156.6165250  44.3569040  23.6641930 156.4992370  45.8374320  23.3706650
 159.8198740  45.3424500  13.2748900 159.5936320  44.6254940  13.8673540
 159.4294940  45.0936940  12.4370650 157.7480640  45.8570780  26.7545820
 158.0836880  46.4437470  27.4323740 156.8280980  45.7263490  26.9843610
 145.6014770  49.3691360  14.0493360 145.9612410  49.9680700  13.3950630
 145.4607110  49.9151250  14.8228390 145.2984040  33.6465960  27.5369230
 144.5842560  33.8462880  28.1421840 145.7179080  32.8705530  27.9084030
 153.5769220  45.9062110  29.9233880 153.2566090  45.1871350  30.4679570
 152.9027580  46.5817180  29.9969940 151.6183390  46.7522560  14.8667030
 151.6093490  47.4852250  14.2511540 150.6981750  46.5054140  14.9593990
 154.6042990  46.8150800  13.5292220 154.7054970  46.6114790  12.5994200
 153.7044730  46.5609080  13.7340000 156.1584310  34.0981820  18.9511910
 156.0352090  34.1167950  18.0021420 157.1068870  34.1460760  19.0710310
 153.2461100  49.3337120  18.2239890 153.5002600  49.2958510  17.3019260
 152.2973580  49.2070450  18.2168140 160.9591670  35.0095820  26.3537040
 160.4565270  35.7501220  26.6930850 161.7748330  35.3979820  26.0373830
 149.2295320  41.9348600  13.3602360 149.9958590  41.8229960  13.9227790
 149.3070010  41.2386570  12.7079130 147.9242080  39.3673670  14.0435250
 148.0045670  38.4201180  14.1552650 148.8161830  39.6980550  14.1495910
 161.2539260  47.4237850  21.4752660 161.3786680  48.2469020  21.9476470
 162.1204820  47.2128580  21.1276810 148.7256790  49.5169060  21.1469790
 149.4619270  48.9684520  21.4178360 149.1097710  50.3825070  21.0075780
 147.7315070  48.7015130  30.3355370 148.5327800  49.0227180  30.7490770
 147.2166890  48.3410710  31.0575280 151.8359100  48.6899370  12.9695360
 152.6287710  48.9788200  12.5177150 151.3163450  48.2591540  12.2907840
 156.5679700  44.8095000  30.2830780 155.9617860  44.8326600  29.5426530
 156.2633810  44.0778040  30.8198030 157.9980070  48.5375290  28.8940190
 158.9501820  48.4533310  28.8440430 157.8508290  49.2017000  29.5673980
 160.8889270  47.9169500  14.3932100 160.6030780  47.5034640  13.5786280
 160.6908820  48.8457210  14.2732620 152.3536500  43.9102780  12.8337710
 152.2487140  43.2955130  13.5599090 152.1860720  43.3868670  12.0500720
 155.5939230  42.9722810  13.4379700 155.0449330  43.4192110  14.0822440
 156.2158490  42.4672060  13.9617370 159.6474170  44.3264910  29.3701960
 160.3883640  44.6640670  28.8669420 158.8846850  44.4956970  28.8171730
 150.9342480  48.6353230  26.9910830 150.3963570  49.3599290  26.6719530
 151.1876440  48.1583570  26.2008170 153.7904690  49.8704440  27.2497480
 153.7163390  50.7739580  27.5569850 152.8883530  49.5516340  27.2219550
 154.3390020  49.0362950  14.8723840 155.2340810  49.3747920  14.8942600
 154.3707650  48.3142360  14.2448120 147.9786180  44.4090000  13.1010840
 148.4161050  44.9519670  13.7568420 148.4633910  43.5836950  13.1107180
 149.7893900  45.5288040  18.2133070 149.4889440  45.4053010  19.1136980
 149.6831390  44.6696630  17.8048800 161.3184370  47.5666620  27.5790040
 160.7186360  47.6259180  26.8353960 161.4478270  46.6271600  27.7086890
 162.5585820  45.3084440  12.9159750 161.7278780  45.3761090  13.3866980
 162.7357650  46.1988560  12.6126610 162.0142280  42.0531920  15.4193950
 162.7761190  42.6228570  15.5253640 162.0296650  41.4859120  16.1902260
 162.0661450  42.3466290  12.5766470 162.3410290  43.2545170  12.4485690
 161.8772190  42.2828820  13.5128460 159.7914480  34.6563230  29.9815120
 160.6684660  34.6646630  30.3649120 159.8035320  33.9194070  29.3707470
 160.5030600  32.3421200  25.8016230 161.1402820  32.9555340  26.1675420
 160.6505490  32.3781860  24.8565460 163.0455150  34.2334990  12.5839370
 163.9704460  34.1016170  12.3757660 163.0230940  34.3127810  13.5375820
 163.1193640  35.0045650  15.2096080 162.3245140  34.9390770  15.7388990
 163.3236920  35.9396290  15.1981430 160.0612060  49.0437200  19.2034470
 160.6571130  48.7221770  18.5268890 160.3190210  48.5709020  19.9947740
 146.3610260  32.3035510  25.1871910 146.0125080  32.7599330  25.9530090
 146.0297960  31.4092640  25.2694340 151.6680660  47.0314700  24.9534820
 151.4272020  47.2989260  24.0665340 152.6083300  47.2020430  25.0085680
 162.9284820  49.0509080  25.7545460 162.4343100  49.4477950  25.0372590
 162.3198110  48.4258290  26.1482740 160.6124270  49.6932500  23.0332200
 160.1527240  50.4448310  22.6590220 159.9836730  48.9738970  22.9747000
 151.0419990  48.0020740  22.2080330 151.5585010  47.3908100  21.6828590
 151.6917370  48.5049520  22.6991340 153.7815490  48.8929230  23.0349310
 154.0693300  48.6383530  22.1582320 154.2938710  48.3406590  23.6254880
 159.5513570  33.3342530  21.6594910 159.9921660  33.2787630  20.8116510
 159.2821160  34.2500540  21.7305090 161.4152140  32.9657770  19.6703730
 161.3540540  32.0218990  19.5234750 162.1944170  33.0737860  20.2157190
 145.7204890  49.1050130  18.6327680 145.5526930  48.4720810  19.3309570
 144.8539400  49.3109530  18.2821870 157.3871700  31.7148630  20.3644920
 157.9901070  32.2868840  20.8393440 156.6464690  32.2788070  20.1418820
 160.5306300  32.1170190  15.6385200 160.7256930  33.0153640  15.9052630
 159.7436170  31.8857270  16.1318150 147.3267590  47.7983360  16.0777820
 146.8015210  48.1791390  15.3739780 147.2512170  48.4234130  16.7987530
 153.8487850  49.8145330  30.4017510 154.7755160  49.5789600  30.4453470
 153.8338280  50.6417330  29.9203540 162.0832910  49.3570900  17.3991760
 162.2585100  48.6708640  16.7552680 161.3854480  49.8817950  17.0068430
 149.9260560  49.7465740  14.9527070 150.6579380  49.4625020  14.4050960
 150.1854230  49.5079020  15.8426450 149.0875350  45.8630470  14.9573400
 148.4584230  46.3315570  15.5059230 149.2023180  45.0179690  15.3919590
 157.6366920  31.8943660  30.7439860 157.5232370  32.2138270  31.6391380
 158.4536660  32.2956170  30.4477140 160.4165410  49.0415190  30.2258550
 161.2090730  48.5464420  30.0184510 160.7098560  49.7205330  30.8334160
 154.6743110  41.6915150   2.9883870 153.8985210  41.2115590   3.2782440
 155.3256040  41.0120800   2.8140030 148.6908940  42.0034960   3.8659630
 147.8593820  41.7483670   4.2656140 149.2989920  42.0745730   4.6017550
 158.6950540  46.0975340   1.7683000 158.2332070  45.3262580   2.0970170
 159.5076090  46.1241410   2.2735450 148.6710200  46.0375050   4.0617650
 148.9738240  45.1472790   3.8827870 149.4153790  46.5945270   3.8339900
 145.0633900  39.5642500   3.5341720 145.6350010  38.7964700   3.5345360
 145.0635440  39.8631260   2.6248330 154.1152100  44.3672340   2.9954030
 154.0460380  43.4262280   2.8343160 154.8771960  44.4573750   3.5676600
 146.3058770  34.9726860   5.3210650 146.1261610  34.0752610   5.6013410
 145.9038850  35.5198730   5.9957600 155.1457270  37.1742720   3.2222960
 155.5222090  36.3014600   3.1096630 155.0476780  37.5101420   2.3313400
 146.9245440  37.4687360   3.9292990 147.6055550  37.7325730   4.5480390
 146.6093490  36.6288230   4.2631000 151.1170010  38.5154720   3.0165580
 151.6248230  39.0135690   3.6570600 151.6483250  37.7389920   2.8404940
 163.2180940  36.6859910   6.7194930 162.5133110  37.0741620   6.2010040
 163.4838860  37.3810200   7.3215860 149.4006110  33.1553280   7.2829000
 149.4024550  33.6725670   6.4774900 148.5710420  32.6783460   7.2598930
 150.6508960  42.7948460   5.4602500 150.3178340  43.4217380   6.1023570
 150.8275640  43.3210340   4.6804170 159.1642870  36.6093540   2.9278840
 158.4598440  36.8978430   3.5081950 159.5255030  37.4193650   2.5678400
 149.0821440  34.8663240   5.2899450 149.4238250  35.7105290   4.9953320
 148.1437250  35.0146980   5.4064790 149.8628060  44.7629260   7.2751680
 150.4802060  45.4380340   6.9936130 149.0021180  45.1717240   7.1839180
 160.7805650  46.2268670   5.1906320 160.0969170  46.8967780   5.1822990
 161.3199940  46.4249320   4.4251180 162.2329790  36.0548330   3.3188050
 161.2854700  36.0887310   3.4503480 162.5579780  36.8687280   3.7037410
 158.3164390  48.0712800   3.9051500 158.3291550  47.6675090   3.0373760
 157.7639610  48.8460090   3.8012930 157.7149830  42.9742640   5.2334110
 158.1318620  42.7602750   4.3987570 158.4389650  43.2315430   5.8042730
 161.6611930  41.3729860   5.3250350 160.8330560  41.4422950   4.8500480
 162.2562410  41.9584170   4.8566180 158.6253940  38.1599180   6.2705220
 158.2125120  38.9852890   6.5245210 157.8929890  37.5744220   6.0781580
 151.2268430  44.6326640   3.2963100 150.9296720  44.0272110   2.6170880
 152.1768250  44.6703950   3.1852460 149.4715350  37.7202290   4.9122930
 150.0229940  37.8297630   4.1376180 149.9858860  38.0939890   5.6278160
 159.3154040  48.2058510   6.9586200 158.8384600  49.0130700   6.7658810
 158.6315830  47.5536840   7.1112410 150.3186860  44.3708330   9.9470900
 149.4215390  44.5948300  10.1944300 150.3439730  44.4943270   8.9982300
 149.1458080  41.2421650   8.5228270 149.0065850  42.1144450   8.8915670
 148.2639440  40.8994460   8.3776210 150.9438430  47.1843350  10.7313420
 150.9153860  47.5886300   9.8641850 150.7803400  46.2553710  10.5685020
 162.8953250  47.9670450  12.0277590 163.3712970  48.4453340  12.7066670
 163.5160410  47.8987940  11.3023090 145.0976730  43.0119200   4.4399180
 145.1757150  43.1467970   3.4954900 145.7118410  42.3035090   4.6327300
 162.2986500  45.1583300   9.1877600 162.4249560  44.9195180   8.2694780
 162.3407880  44.3267840   9.6599680 156.1603240  48.8611300   7.7572410
 156.6747910  48.7719310   8.5594840 155.3172320  49.2071000   8.0500320
 162.1510510  37.2115760  10.1527340 161.5354780  37.7195430   9.6242800
 161.8306930  36.3114090  10.0953280 145.1536250  44.0533370   6.9793640
 145.3167290  43.5838730   6.1613010 145.6188700  43.5456930   7.6442480
 149.9255020  33.1839130   2.0154210 149.4823170  33.9648670   1.6838730
 150.4840010  33.5069020   2.7225150 154.2124830  36.0507650   7.6189530
 153.7504200  36.2590670   8.4309470 153.8102940  35.2367000   7.3160200
 159.2129340  37.2716600   8.7486190 158.3622930  36.9722350   9.0695260
 159.0531130  37.5158610   7.8370010 156.3079050  38.7718350  10.8484980
 156.6332460  37.9382100  10.5087210 157.0959380  39.2946870  10.9963310
 151.9630920  33.7286460   3.8743810 152.2603250  34.6349290   3.7935830
 152.5116480  33.2405240   3.2603380 152.1568450  39.2058280  10.4095730
 152.0612050  38.2653010  10.2596130 153.0000430  39.4273350  10.0143800
 147.2878990  35.6171950   8.5629510 146.8942380  36.4647160   8.7702290
 146.5997390  34.9798320   8.7538150 144.5896040  33.5400410   2.5959590
 144.3009090  34.1103270   3.3084570 145.3341800  33.0604860   2.9590820
 156.1387010  39.5405360   4.4680170 155.4068130  40.0492170   4.8170270
 155.7411350  38.7235340   4.1668950 152.5764400  36.2159560   2.8732660
 152.5800460  35.7749510   2.0237200 153.4715520  36.5376890   2.9804480
 148.4266780  36.0986050   1.8326870 148.0866830  36.5761280   2.5893920
 147.6644100  35.6451170   1.4727970 156.6012920  34.9939040   3.8803110
 156.6185660  35.4447690   4.7244960 156.3528500  34.0944680   4.0936550
 160.0283670  32.4071220   9.7189490 160.3529440  31.6760880  10.2447470
 160.0640180  32.0884860   8.8170480 146.7275230  43.4284800   9.1389450
 146.3430020  42.7878470   9.7372410 147.0387420  44.1320920   9.7084180
 152.8772370  40.2761340   4.6198070 153.2442500  39.8019910   5.3659410
 152.6877430  41.1502910   4.9606410 150.6671740  39.3169980   6.9382280
 150.3628810  40.1961960   7.1632640 151.6218200  39.3769770   6.9739720
 159.9541510  42.5196330   3.3275520 160.6740630  43.0151620   2.9371630
 159.7523330  41.8414220   2.6829390 155.3360310  42.5905390   9.2144520
 155.2697620  41.6701060   8.9602110 154.7065450  42.6880830   9.9289160
 146.7235470  40.1572720   8.0853640 146.3650410  40.8226570   8.6726980
 146.4290030  39.3256270   8.4566260 149.9248590  40.6156960  10.9693190
 149.6248730  40.7614140  10.0721010 150.6959830  40.0562250  10.8766580
 155.2677040  45.4125960   8.9648320 155.2821580  44.4806920   8.7467230
 154.5602140  45.4985720   9.6038090 161.4788250  42.0533300   8.3116900
 160.7536440  42.6462080   8.1146290 162.0063710  42.0456840   7.5130270
 154.7010940  47.0543530   6.0588820 155.3453160  47.2602910   6.7362240
 155.0640380  46.2931930   5.6059670 155.9743020  45.0575880   4.7766270
 156.6165250  44.3569040   4.8898440 156.4992370  45.8374320   4.5963160
 157.7480640  45.8570780   7.9802330 158.0836880  46.4437470   8.6580250
 156.8280980  45.7263490   8.2100120 145.2984040  33.6465960   8.7625740
 144.5842560  33.8462880   9.3678350 145.7179080  32.8705530   9.1340540
 145.5856630  47.6346220   9.7492270 145.6947750  46.6940960   9.6087660
 144.9337190  47.9000970   9.1006000 153.5769220  45.9062110  11.1490390
 153.2566090  45.1871350  11.6936080 152.9027580  46.5817180  11.2226450
 156.7922820  36.1388270   6.5127190 157.1603640  35.3183480   6.8406760
 155.9321020  36.1990160   6.9282840 153.7524810  38.7927860   6.7365160
 154.2510060  39.2673680   7.4017010 153.8947760  37.8691380   6.9435190
 160.9591670  35.0095820   7.5793550 160.4565270  35.7501220   7.9187360
 161.7748330  35.3979820   7.2630340 161.2539260  47.4237850   2.7009170
 161.3786680  48.2469020   3.1732980 162.1204820  47.2128580   2.3533320
 148.7256790  49.5169060   2.3726300 149.4619270  48.9684520   2.6434870
 149.1097710  50.3825070   2.2332290 147.7315070  48.7015130  11.5611880
 148.5327800  49.0227180  11.9747280 147.2166890  48.3410710  12.2831790
 156.5679700  44.8095000  11.5087290 155.9617860  44.8326600  10.7683040
 156.2633810  44.0778040  12.0454540 157.9980070  48.5375290  10.1196700
 158.9501820  48.4533310  10.0696940 157.8508290  49.2017000  10.7930490
 145.4512880  41.1888590  10.5047930 145.9551900  40.6095870  11.0764160
 144.7120300  41.4728820  11.0424300 152.5050820  42.5959580  10.0383450
 151.7396490  43.1644580   9.9538120 152.6866780  42.3035790   9.1451680
 159.6474170  44.3264910  10.5958470 160.3883640  44.6640670  10.0925930
 158.8846850  44.4956970  10.0428240 147.4835960  39.3318180  11.3998000
 147.5241300  39.0332050  12.3083230 148.3381460  39.7325790  11.2405520
 149.4241770  37.9110280   9.3672490 148.8938230  37.4201230   8.7395830
 150.0929840  38.3394480   8.8330420 158.3219830  42.3779740   9.1313680
 158.7360850  42.5324820   9.9804100 157.3870830  42.5034960   9.2939460
 158.7942000  39.7175900  11.1352830 159.3762770  38.9628220  11.0473310
 158.9703770  40.2483340  10.3584310 149.9114070  34.8772650   9.4469780
 149.8170940  34.2593400   8.7220650 149.3311460  35.6038940   9.2199690
 152.6775510  33.4345890   6.4797170 152.2292810  33.4570150   5.6342720
 152.0440710  33.0364910   7.0767470 153.0835060  42.3300220   7.1009610
 153.5023170  43.1732950   6.9285850 152.1643690  42.4672260   6.8716390
 155.4198960  40.0616400   8.4847450 155.5395170  39.4657540   9.2242290
 156.2792960  40.0986090   8.0648750 157.7586860  40.6153590   7.0609960
 157.2322080  41.1396210   6.4575100 158.1018200  41.2480980   7.6919690
 150.9342480  48.6353230   8.2167340 150.3963570  49.3599290   7.8976040
 151.1876440  48.1583570   7.4264680 152.1867730  36.6037750   9.7423270
 152.7767420  36.2953600  10.4301090 151.3687970  36.1317500   9.8983170
 157.0061160  36.2203560   9.9756290 156.3176680  35.5585100   9.9106280
 157.7267180  35.7741830  10.4204750 153.7904690  49.8704440   8.4753990
 153.7163390  50.7739580   8.7826360 152.8883530  49.5516340   8.4476060
 145.1931980  47.1979030   1.7787610 145.5234990  46.3300090   1.5466250
 145.6222980  47.4037550   2.6092570 145.6822190  48.0649620   4.5169240
 145.2453180  48.2450420   5.3493390 146.2499870  48.8224240   4.3750960
 161.3184370  47.5666620   8.8046550 160.7186360  47.6259180   8.0610470
 161.4478270  46.6271600   8.9343400 160.0036010  44.2918600   6.9022710
 159.1895850  44.7215760   7.1648500 160.4110210  44.9037010   6.2891760
 146.5522550  40.9622420   5.4161460 146.9195590  40.8749820   6.2957480
 145.9833370  40.1988970   5.3168320 161.3526410  39.4306800   8.4291930
 161.1212500  39.2019550   7.5289880 161.6130960  40.3506350   8.3836820
 146.1038550  37.8731510   9.3219880 145.2094600  37.8398270   9.6613590
 146.6436100  38.0718300  10.0871130 159.7914480  34.6563230  11.2071630
 160.6684660  34.6646630  11.5905630 159.8035320  33.9194070  10.5963980
 161.2377750  38.5092770   2.0959650 161.7615230  38.0155420   1.4649820
 161.8237170  38.6443130   2.8407220 161.4167470  38.5932640   5.6179200
 160.4670180  38.5596180   5.7324190 161.5980480  39.5032750   5.3828970
 146.6078260  32.1479840   3.6703100 147.2554450  31.5977220   3.2298260
 147.0280100  32.4022990   4.4918910 160.5030600  32.3421200   7.0272740
 161.1402820  32.9555340   7.3931930 160.6505490  32.3781860   6.0821970
 146.3610260  32.3035510   6.4128420 146.0125080  32.7599330   7.1786600
 146.0297960  31.4092640   6.4950850 147.9674630  45.4755110  10.5781610
 147.9244260  45.1048020  11.4596070 148.0985640  46.4132680  10.7183430
 151.6680660  47.0314700   6.1791330 151.4272020  47.2989260   5.2921850
 152.6083300  47.2020430   6.2342190 153.8735080  33.4947390   9.9347840
 153.8123970  34.0869220  10.6843250 154.8135460  33.3873350   9.7898100
 156.5109640  33.1517450   9.5740130 157.1250050  33.4696740   8.9121210
 157.0559200  32.6666040  10.1935990 162.9284820  49.0509080   6.9801970
 162.4343100  49.4477950   6.2629100 162.3198110  48.4258290   7.3739250
 147.0330900  31.8311710   9.6879190 147.5813890  31.6499760   8.9245300
 147.0986210  31.0405820  10.2235500 147.8062660  48.4217360   7.6979390
 147.2122980  48.2902060   8.4369430 147.7986500  47.5855500   7.2321490
 157.2517680  31.7149590   5.9009420 156.3777520  32.0484700   5.6982350
 157.1428430  31.2422770   6.7261290 158.1589660  33.9220460   7.2851140
 157.8303020  33.1072220   6.9052870 159.1071960  33.8790270   7.1616830
 160.6124270  49.6932500   4.2588710 160.1527240  50.4448310   3.8846730
 159.9836730  48.9738970   4.2003510 147.4374890  45.7875740   6.6487430
 146.7108950  45.1681030   6.5813380 147.4984040  46.1816350   5.7785510
 151.0419990  48.0020740   3.4336840 151.5585010  47.3908100   2.9085100
 151.6917370  48.5049520   3.9247850 153.7815490  48.8929230   4.2605820
 154.0693300  48.6383530   3.3838830 154.2938710  48.3406590   4.8511390
 154.9992500  32.6319430   4.8402330 154.2164290  33.1064930   5.1199090
 154.7055430  31.7274260   4.7315510 159.5513570  33.3342530   2.8851420
 159.9921660  33.2787630   2.0373020 159.2821160  34.2500540   2.9561600
 153.8487850  49.8145330  11.6274020 154.7755160  49.5789600  11.6709980
 153.8338280  50.6417330  11.1460050 157.6366920  31.8943660  11.9696370
 157.5232370  32.2138270  12.8647890 158.4536660  32.2956170  11.6733650
 160.4165410  49.0415190  11.4515060 161.2090730  48.5464420  11.2441020
 160.7098560  49.7205330  12.0590670 156.5425070  21.1392640  57.4305070
 156.4619120  20.2247250  57.1596780 156.1289490  21.6359710  56.7244780
 154.6743110  22.9171660  59.3114340 153.8985210  22.4372100  59.6012910
 155.3256040  22.2377310  59.1370500 158.6950540  27.3231850  58.0913470
 158.2332070  26.5519090  58.4200640 159.5076090  27.3497920  58.5965920
 147.1000890  18.1893360  53.9732490 146.2117590  18.5309330  53.8712370
 147.3842080  17.9893680  53.0813320 145.0633900  20.7899010  59.8572190
 145.6350010  20.0221210  59.8575830 145.0635440  21.0887770  58.9478800
 154.9213850  29.6089860  57.7117460 154.3025290  30.0647360  57.1411900
 155.7765630  29.7641320  57.3107160 154.1152100  25.5928850  59.3184500
 154.0460380  24.6518790  59.1573630 154.8771960  25.6830260  59.8907070
 155.1457270  18.3999230  59.5453430 155.5222090  17.5271110  59.4327100
 155.0476780  18.7357930  58.6543870 149.2762280  16.7724860  55.0070870
 149.3829030  17.6728590  55.3139630 148.3654640  16.7242830  54.7165520
 158.9281390  15.8949670  56.4781770 159.7491010  15.4046240  56.5207250
 158.9615470  16.4847330  57.2313610 151.1170010  19.7411230  59.3396050
 151.6248230  20.2392200  59.9801070 151.6483250  18.9646430  59.1635410
 155.7877200  24.4929100  55.1049370 155.1694470  24.9578550  54.5412090
 156.3000450  25.1856580  55.5218880 159.1642870  17.8350050  59.2509310
 158.4598440  18.1234940  59.8312420 159.5255030  18.6450160  58.8908870
 145.1560400  25.1785630  52.4789000 144.7788380  25.6672730  51.7473900
 145.4133470  25.8510910  53.1095530 162.2329790  17.2804840  59.6418520
 161.2854700  17.3143820  59.7733950 162.5579780  18.0943790  60.0267880
 152.7649330  13.5802020  57.9374510 153.0724310  13.0248910  57.2210010
 151.8350030  13.7146480  57.7547500 158.3164390  29.2969310  60.2281970
 158.3291550  28.8931600  59.3604230 157.7639610  30.0716600  60.1243400
 159.6109810  26.0185530  55.3172140 159.5006140  25.0759860  55.4421560
 159.6078060  26.3801170  56.2034900 155.1530090  21.6450850  54.6734630
 154.2259370  21.5788230  54.9023100 155.3054910  22.5830980  54.5589870
 155.1399170  17.9167850  51.6701790 154.2002840  18.0781810  51.7554250
 155.4582430  18.6353530  51.1237780 159.1827380  23.2071150  55.1769880
 158.5639800  22.8690700  54.5296180 159.1651830  22.5630910  55.8849070
 150.7586730  22.1715590  57.4554360 150.3543730  21.4592840  56.9600260
 150.8449850  21.8268830  58.3442400 151.2268430  25.8583150  59.6193570
 150.9296720  25.2528620  58.9401350 152.1768250  25.8960460  59.5082930
 157.3592080  22.4457960  52.1842630 157.7985360  21.6080390  52.0380450
 158.0720500  23.0787360  52.2706770 155.4687460  27.3854030  56.1523870
 155.9083370  28.1278360  55.7379260 155.4074350  27.6280600  57.0762830
 160.9409220  13.7000770  50.4983670 160.6281880  13.7927600  51.3982740
 161.7021690  14.2781800  50.4481100 147.4591360  21.0660570  54.9561010
 147.3388960  21.7922660  54.3442280 147.1492250  20.2963480  54.4788920
 146.3424360  25.9375900  57.1735830 145.9352440  26.0790490  56.3189430
 147.2337370  25.6536060  56.9707040 158.1357640  30.3723150  53.5086880
 157.9758780  30.0826090  54.4068710 157.9704350  29.5963280  52.9732110
 150.6146020  30.1521680  55.2858500 150.4388500  29.2357220  55.0726300
 149.7601760  30.5108970  55.5256300 157.8383770  27.8810710  52.0684880
 157.1448930  27.8788000  51.4087160 158.5806630  27.4570030  51.6379050
 157.4033700  29.5073420  56.1433370 157.8590650  28.7262800  56.4571990
 157.7426220  30.2180240  56.6874550 149.9255020  14.4095640  58.3384680
 149.4823170  15.1905180  58.0069200 150.4840010  14.7325530  59.0455620
 153.0413840  14.0306340  53.2190510 152.4168020  14.0266210  53.9443820
 152.9543960  13.1637300  52.8226480 151.9630920  14.9542970  60.1974280
 152.2603250  15.8605800  60.1166300 152.5116480  14.4661750  59.5833850
 149.7169240  19.5329210  56.0665930 149.4910160  19.3166380  56.9712550
 148.9361770  19.9657670  55.7211900 156.9467000  19.5392580  54.6656580
 156.3475890  20.2628380  54.4820200 157.4946610  19.4769360  53.8833030
 155.5531870  18.1756120  56.6959860 155.9461440  18.4928320  55.8828550
 155.9148720  17.2968000  56.8104380 144.5896040  14.7656920  58.9190060
 144.3009090  15.3359780  59.6315040 145.3341800  14.2861370  59.2821290
 144.7766270  18.7077040  50.1292780 144.6940940  19.6507800  50.2707770
 144.4249330  18.5651950  49.2505130 152.5764400  17.4416070  59.1963130
 152.5800460  17.0006020  58.3467670 153.4715520  17.7633400  59.3034950
 148.4266780  17.3242560  58.1557340 148.0866830  17.8017790  58.9124390
 147.6644100  16.8707680  57.7958440 152.6384550  18.4428150  52.1869890
 152.7597370  18.4014630  53.1355710 152.2533060  19.3052300  52.0316620
 151.6506050  20.7529290  51.5853190 151.0822950  20.3047540  50.9589100
 152.3595050  21.1122070  51.0518340 145.7412860  16.2461540  57.0722010
 145.4559780  15.8817210  57.9100630 145.6791720  15.5142000  56.4585150
 149.1953530  24.7487480  53.8579600 148.4215790  24.2085100  53.6978320
 149.9248160  24.2294090  53.5197360 159.9541510  23.7452840  59.6505990
 160.6740630  24.2408130  59.2602100 159.7523330  23.0670730  59.0059860
 155.4151450  15.1390800  53.7935380 154.6016060  14.6403970  53.7180690
 155.2213400  15.9789050  53.3771730 158.1299840  19.5110450  52.0897540
 159.0179460  19.8227680  51.9148880 158.1004930  18.6382700  51.6978120
 149.2390930  24.4167860  57.4958410 149.7569600  23.6136120  57.4415300
 148.7874950  24.3547000  58.3375240 154.1260430  25.6834140  52.7685710
 154.4676130  26.4276370  52.2729030 153.2973140  25.9965260  53.1310540
 160.4014110  20.8222290  51.5577400 160.3177830  21.2536510  50.7073840
 161.1208300  21.2820640  51.9904220 161.4301360  27.6764550  54.2859530
 160.7877520  27.0220170  54.5603250 161.0432020  28.0819640  53.5100200
 157.0087840  25.0049980  58.1331220 157.3611660  24.4078110  57.4732590
 156.1250170  24.6794210  58.3039470 153.0951120  25.7647670  55.5401630
 153.7822250  26.3116880  55.9209220 152.3083540  26.3088400  55.5751240
 145.2343520  21.3820490  51.0318710 146.1038370  21.6645290  51.3154630
 144.7433840  22.1956360  50.9167520 152.3978330  22.7693700  55.1526990
 152.8541110  23.5798950  55.3787180 152.0466540  22.4516840  55.9845480
 148.2990110  13.1131350  55.6249510 148.1704740  13.1049250  56.5734430
 147.4752130  13.4514440  55.2740520 159.8198740  26.5681010  50.8235880
 159.5936320  25.8511450  51.4160520 159.4294940  26.3193450  49.9857630
 145.6014770  30.5947870  51.5980340 145.9612410  31.1937210  50.9437610
 145.4607110  31.1407760  52.3715370 159.4014990  24.4852950  52.4850040
 159.1136690  24.9465640  53.2727920 160.1967160  24.0250720  52.7534260
 151.6183390  27.9779070  52.4154010 151.6093490  28.7108760  51.7998520
 150.6981750  27.7310650  52.5080970 147.2190030  23.1993960  53.1600770
 146.6117980  23.9392860  53.1696070 147.6939380  23.2893320  52.3338970
 160.1584850  16.3201720  53.6445220 159.5298010  16.4247390  52.9303450
 159.6636770  16.5398500  54.4339100 154.6042990  28.0407310  51.0779200
 154.7054970  27.8371300  50.1481180 153.7044730  27.7865590  51.2826980
 152.1268880  18.5987670  55.0603100 151.4185030  19.0674010  55.5016710
 152.4113360  17.9409680  55.6948290 156.1584310  15.3238330  56.4998890
 156.0352090  15.3424460  55.5508400 157.1068870  15.3717270  56.6197290
 153.2461100  30.5593630  55.7726870 153.5002600  30.5215020  54.8506240
 152.2973580  30.4326960  55.7655120 150.3303900  16.9072750  52.4353810
 151.1794430  17.3442900  52.3694000 149.9635170  17.2193010  53.2625870
 159.2513680  21.4785510  57.3485380 158.3103820  21.4935740  57.5233070
 159.5657750  20.6921470  57.7945680 149.2295320  23.1605110  50.9089340
 149.9958590  23.0486470  51.4714770 149.3070010  22.4643080  50.2566110
 147.9242080  20.5930180  51.5922230 148.0045670  19.6457690  51.7039630
 148.8161830  20.9237060  51.6982890 161.2539260  28.6494360  59.0239640
 161.3786680  29.4725530  59.4963450 162.1204820  28.4385090  58.6763790
 148.7256790  30.7425570  58.6956770 149.4619270  30.1941030  58.9665340
 149.1097710  31.6081580  58.5562760 145.6102270  26.8099140  54.5698280
 144.6842050  27.0520280  54.5603690 146.0758700  27.6373400  54.4483030
 151.8359100  29.9155880  50.5182340 152.6287710  30.2044710  50.0664130
 151.3163450  29.4848050  49.8394820 160.8889270  29.1426010  51.9419080
 160.6030780  28.7291150  51.1273260 160.6908820  30.0713720  51.8219600
 152.3536500  25.1359290  50.3824690 152.2487140  24.5211640  51.1086070
 152.1860720  24.6125180  49.5987700 155.5939230  24.1979320  50.9866680
 155.0449330  24.6448620  51.6309420 156.2158490  23.6928570  51.5104350
 151.2614350  23.1570240  52.8831980 151.6830770  22.9910110  53.7263370
 151.3865190  22.3470470  52.3887120 153.7741990  22.1807850  50.1309080
 154.2947650  21.4656870  49.7650230 154.4210390  22.8193720  50.4309590
 150.1573250  19.2303470  49.8290140 149.9562310  18.3670830  50.1903480
 149.9865300  19.1436830  48.8911740 157.6361560  14.0411700  52.3577020
 157.9163850  13.1979600  52.7136440 156.8627290  14.2734810  52.8715770
 148.9556050  16.3304090  49.8168020 149.2581950  16.3371520  48.9087170
 149.6950640  15.9801950  50.3135680 152.1740980  15.2738710  50.8024220
 151.8262980  14.5962700  50.2226670 152.3753750  14.8128220  51.6167610
 154.3390020  30.2619460  52.4210820 155.2340810  30.6004430  52.4429580
 154.3707650  29.5398870  51.7935100 147.9786180  25.6346510  50.6497820
 148.4161050  26.1776180  51.3055400 148.4633910  24.8093460  50.6594160
 145.1931980  28.4235540  58.1018080 145.5234990  27.5556600  57.8696720
 145.6222980  28.6294060  58.9323040 149.7893900  26.7544550  55.7620050
 149.4889440  26.6309520  56.6623960 149.6831390  25.8953140  55.3535780
 162.5585820  26.5340950  50.4646730 161.7278780  26.6017600  50.9353960
 162.7357650  27.4245070  50.1613590 162.0142280  23.2788430  52.9680930
 162.7761190  23.8485080  53.0740620 162.0296650  22.7115630  53.7389240
 145.5146620  21.8026360  57.1988590 144.8595460  21.5338000  56.5548290
 146.3524570  21.6930840  56.7490570 163.0202250  24.1338530  57.8122860
 163.3911080  23.3505850  57.4058830 163.6604180  24.8227630  57.6340160
 162.0661450  23.5722800  50.1253450 162.3410290  24.4801680  49.9972670
 161.8772190  23.5085330  51.0615440 158.4637060  16.5967650  51.4207080
 158.8821940  16.4098630  50.5803740 158.1573120  15.7446700  51.7310010
 161.9626790  21.5091790  55.1182880 161.5870390  20.7419720  54.6864170
 161.2329910  21.8914490  55.6057810 144.7284700  19.0125290  53.1413920
 143.8248780  19.2755490  52.9665580 145.2125320  19.2836460  52.3613880
 161.2377750  19.7349280  58.4190120 161.7615230  19.2411930  57.7880290
 161.8237170  19.8699640  59.1637690 147.2711910  18.0690830  51.0508300
 147.9803610  17.6474050  50.5655580 146.5551850  18.1366060  50.4191650
 146.9186070  14.1230160  50.0910950 147.6414200  14.6639100  50.4092170
 147.1910590  13.8493580  49.2152490 160.7277720  18.9922630  54.3582530
 161.2236840  18.7593500  55.1431410 160.5293790  18.1534470  53.9420170
 162.1564880  17.6283580  56.8920210 162.0464160  17.4739620  57.8302480
 162.9172470  17.1004520  56.6495620 163.0455150  15.4591500  50.1326350
 163.9704460  15.3272680  49.9244640 163.0230940  15.5384320  51.0862800
 163.1193640  16.2302160  52.7583060 162.3245140  16.1647280  53.2875970
 163.3236920  17.1652800  52.7468410 160.0612060  30.2693710  56.7521450
 160.6571130  29.9478280  56.0755870 160.3190210  29.7965530  57.5434720
 151.0419990  29.2277250  59.7567310 151.5585010  28.6164610  59.2315570
 151.6917370  29.7306030  60.2478320 159.5513570  14.5599040  59.2081890
 159.9921660  14.5044140  58.3603490 159.2821160  15.4757050  59.2792070
 161.4152140  14.1914280  57.2190710 161.3540540  13.2475500  57.0721730
 162.1944170  14.2994370  57.7644170 145.7204890  30.3306640  56.1814660
 145.5526930  29.6977320  56.8796550 144.8539400  30.5366040  55.8308850
 146.3432910  14.1623420  53.6846520 147.1012270  14.2752300  53.1110550
 145.8810080  14.9992620  53.6389950 152.8846720  16.2762690  56.6748830
 152.0721230  15.9019580  56.3344710 153.3888360  15.5207770  56.9770020
 157.3871700  12.9405140  57.9131900 157.9901070  13.5125350  58.3880420
 156.6464690  13.5044580  57.6905800 160.5306300  13.3426700  53.1872180
 160.7256930  14.2410150  53.4539610 159.7436170  13.1113780  53.6805130
 147.3267590  29.0239870  53.6264800 146.8015210  29.4047900  52.9226760
 147.2512170  29.6490640  54.3474510 148.7158060  14.6887470  52.2248490
 149.2450820  13.9017270  52.0956440 149.3486380  15.3678660  52.4584020
 150.9095900  14.4262610  55.2793880 150.2798640  13.7249920  55.4464010
 150.3701040  15.1866740  55.0627040 162.0832910  30.5827410  54.9478740
 162.2585100  29.8965150  54.3039660 161.3854480  31.1074460  54.5555410
 149.9260560  30.9722250  52.5014050 150.6579380  30.6881530  51.9537940
 150.1854230  30.7335530  53.3913430 149.0875350  27.0886980  52.5060380
 148.4584230  27.5572080  53.0546210 149.2023180  26.2436200  52.9406570
 156.5425070  21.1392640  38.6561580 156.4619120  20.2247250  38.3853290
 156.1289490  21.6359710  37.9501290 154.6743110  22.9171660  40.5370850
 153.8985210  22.4372100  40.8269420 155.3256040  22.2377310  40.3627010
 148.6908940  23.2291470  41.4146610 147.8593820  22.9740180  41.8143120
 149.2989920  23.3002240  42.1504530 158.6950540  27.3231850  39.3169980
 158.2332070  26.5519090  39.6457150 159.5076090  27.3497920  39.8222430
 148.6710200  27.2631560  41.6104630 148.9738240  26.3729300  41.4314850
 149.4153790  27.8201780  41.3826880 147.1000890  18.1893360  35.1989000
 146.2117590  18.5309330  35.0968880 147.3842080  17.9893680  34.3069830
 145.0633900  20.7899010  41.0828700 145.6350010  20.0221210  41.0832340
 145.0635440  21.0887770  40.1735310 154.9213850  29.6089860  38.9373970
 154.3025290  30.0647360  38.3668410 155.7765630  29.7641320  38.5363670
 154.1152100  25.5928850  40.5441010 154.0460380  24.6518790  40.3830140
 154.8771960  25.6830260  41.1163580 146.3058770  16.1983370  42.8697630
 146.1261610  15.3009120  43.1500390 145.9038850  16.7455240  43.5444580
 155.1457270  18.3999230  40.7709940 155.5222090  17.5271110  40.6583610
 155.0476780  18.7357930  39.8800380 149.2762280  16.7724860  36.2327380
 149.3829030  17.6728590  36.5396140 148.3654640  16.7242830  35.9422030
 158.9281390  15.8949670  37.7038280 159.7491010  15.4046240  37.7463760
 158.9615470  16.4847330  38.4570120 146.9245440  18.6943870  41.4779970
 147.6055550  18.9582240  42.0967370 146.6093490  17.8544740  41.8117980
 151.1170010  19.7411230  40.5652560 151.6248230  20.2392200  41.2057580
 151.6483250  18.9646430  40.3891920 163.2180940  17.9116420  44.2681910
 162.5133110  18.2998130  43.7497020 163.4838860  18.6066710  44.8702840
 149.4006110  14.3809790  44.8315980 149.4024550  14.8982180  44.0261880
 148.5710420  13.9039970  44.8085910 155.7877200  24.4929100  36.3305880
 155.1694470  24.9578550  35.7668600 156.3000450  25.1856580  36.7475390
 150.6508960  24.0204970  43.0089480 150.3178340  24.6473890  43.6510550
 150.8275640  24.5466850  42.2291150 159.1642870  17.8350050  40.4765820
 158.4598440  18.1234940  41.0568930 159.5255030  18.6450160  40.1165380
 149.0821440  16.0919750  42.8386430 149.4238250  16.9361800  42.5440300
 148.1437250  16.2403490  42.9551770 149.8628060  25.9885770  44.8238660
 150.4802060  26.6636850  44.5423110 149.0021180  26.3973750  44.7326160
 145.1560400  25.1785630  33.7045510 144.7788380  25.6672730  32.9730410
 145.4133470  25.8510910  34.3352040 160.7805650  27.4525180  42.7393300
 160.0969170  28.1224290  42.7309970 161.3199940  27.6505830  41.9738160
 162.2329790  17.2804840  40.8675030 161.2854700  17.3143820  40.9990460
 162.5579780  18.0943790  41.2524390 152.7649330  13.5802020  39.1631020
 153.0724310  13.0248910  38.4466520 151.8350030  13.7146480  38.9804010
 158.3164390  29.2969310  41.4538480 158.3291550  28.8931600  40.5860740
 157.7639610  30.0716600  41.3499910 159.6109810  26.0185530  36.5428650
 159.5006140  25.0759860  36.6678070 159.6078060  26.3801170  37.4291410
 157.7149830  24.1999150  42.7821090 158.1318620  23.9859260  41.9474550
 158.4389650  24.4571940  43.3529710 155.1530090  21.6450850  35.8991140
 154.2259370  21.5788230  36.1279610 155.3054910  22.5830980  35.7846380
 155.1399170  17.9167850  32.8958300 154.2002840  18.0781810  32.9810760
 155.4582430  18.6353530  32.3494290 161.6611930  22.5986370  42.8737330
 160.8330560  22.6679460  42.3987460 162.2562410  23.1840680  42.4053160
 159.1827380  23.2071150  36.4026390 158.5639800  22.8690700  35.7552690
 159.1651830  22.5630910  37.1105580 158.6253940  19.3855690  43.8192200
 158.2125120  20.2109400  44.0732190 157.8929890  18.8000730  43.6268560
 150.7586730  22.1715590  38.6810870 150.3543730  21.4592840  38.1856770
 150.8449850  21.8268830  39.5698910 151.2268430  25.8583150  40.8450080
 150.9296720  25.2528620  40.1657860 152.1768250  25.8960460  40.7339440
 149.4715350  18.9458800  42.4609910 150.0229940  19.0554140  41.6863160
 149.9858860  19.3196400  43.1765140 159.3154040  29.4315020  44.5073180
 158.8384600  30.2387210  44.3145790 158.6315830  28.7793350  44.6599390
 150.3186860  25.5964840  47.4957880 149.4215390  25.8204810  47.7431280
 150.3439730  25.7199780  46.5469280 157.3592080  22.4457960  33.4099140
 157.7985360  21.6080390  33.2636960 158.0720500  23.0787360  33.4963280
 149.1458080  22.4678160  46.0715250 149.0065850  23.3400960  46.4402650
 148.2639440  22.1250970  45.9263190 155.4687460  27.3854030  37.3780380
 155.9083370  28.1278360  36.9635770 155.4074350  27.6280600  38.3019340
 150.9438430  28.4099860  48.2800400 150.9153860  28.8142810  47.4128830
 150.7803400  27.4810220  48.1172000 160.9409220  13.7000770  31.7240180
 160.6281880  13.7927600  32.6239250 161.7021690  14.2781800  31.6737610
 147.4591360  21.0660570  36.1817520 147.3388960  21.7922660  35.5698790
 147.1492250  20.2963480  35.7045430 162.8953250  29.1926960  49.5764570
 163.3712970  29.6709850  50.2553650 163.5160410  29.1244450  48.8510070
 145.0976730  24.2375710  41.9886160 145.1757150  24.3724480  41.0441880
 145.7118410  23.5291600  42.1814280 146.3424360  25.9375900  38.3992340
 145.9352440  26.0790490  37.5445940 147.2337370  25.6536060  38.1963550
 162.2986500  26.3839810  46.7364580 162.4249560  26.1451690  45.8181760
 162.3407880  25.5524350  47.2086660 156.1603240  30.0867810  45.3059390
 156.6747910  29.9975820  46.1081820 155.3172320  30.4327510  45.5987300
 158.1357640  30.3723150  34.7343390 157.9758780  30.0826090  35.6325220
 157.9704350  29.5963280  34.1988620 150.6146020  30.1521680  36.5115010
 150.4388500  29.2357220  36.2982810 149.7601760  30.5108970  36.7512810
 157.8383770  27.8810710  33.2941390 157.1448930  27.8788000  32.6343670
 158.5806630  27.4570030  32.8635560 157.4033700  29.5073420  37.3689880
 157.8590650  28.7262800  37.6828500 157.7426220  30.2180240  37.9131060
 162.1510510  18.4372270  47.7014320 161.5354780  18.9451940  47.1729780
 161.8306930  17.5370600  47.6440260 145.1536250  25.2789880  44.5280620
 145.3167290  24.8095240  43.7099990 145.6188700  24.7713440  45.1929460
 149.9255020  14.4095640  39.5641190 149.4823170  15.1905180  39.2325710
 150.4840010  14.7325530  40.2712130 154.2124830  17.2764160  45.1676510
 153.7504200  17.4847180  45.9796450 153.8102940  16.4623510  44.8647180
 159.2129340  18.4973110  46.2973170 158.3622930  18.1978860  46.6182240
 159.0531130  18.7415120  45.3856990 156.3079050  19.9974860  48.3971960
 156.6332460  19.1638610  48.0574190 157.0959380  20.5203380  48.5450290
 153.0413840  14.0306340  34.4447020 152.4168020  14.0266210  35.1700330
 152.9543960  13.1637300  34.0482990 151.9630920  14.9542970  41.4230790
 152.2603250  15.8605800  41.3422810 152.5116480  14.4661750  40.8090360
 149.7169240  19.5329210  37.2922440 149.4910160  19.3166380  38.1969060
 148.9361770  19.9657670  36.9468410 156.9467000  19.5392580  35.8913090
 156.3475890  20.2628380  35.7076710 157.4946610  19.4769360  35.1089540
 152.1568450  20.4314790  47.9582710 152.0612050  19.4909520  47.8083110
 153.0000430  20.6529860  47.5630780 155.5531870  18.1756120  37.9216370
 155.9461440  18.4928320  37.1085060 155.9148720  17.2968000  38.0360890
 147.2878990  16.8428460  46.1116490 146.8942380  17.6903670  46.3189270
 146.5997390  16.2054830  46.3025130 153.8624040  16.9263430  49.1813230
 153.1722360  16.7335630  49.8159320 154.6056340  17.2098070  49.7137530
 144.5896040  14.7656920  40.1446570 144.3009090  15.3359780  40.8571550
 145.3341800  14.2861370  40.5077800 144.7766270  18.7077040  31.3549290
 144.6940940  19.6507800  31.4964280 144.4249330  18.5651950  30.4761640
 156.1387010  20.7661870  42.0167150 155.4068130  21.2748680  42.3657250
 155.7411350  19.9491850  41.7155930 152.5764400  17.4416070  40.4219640
 152.5800460  17.0006020  39.5724180 153.4715520  17.7633400  40.5291460
 148.4266780  17.3242560  39.3813850 148.0866830  17.8017790  40.1380900
 147.6644100  16.8707680  39.0214950 152.6384550  18.4428150  33.4126400
 152.7597370  18.4014630  34.3612220 152.2533060  19.3052300  33.2573130
 156.6012920  16.2195550  41.4290090 156.6185660  16.6704200  42.2731940
 156.3528500  15.3201190  41.6423530 151.6506050  20.7529290  32.8109700
 151.0822950  20.3047540  32.1845610 152.3595050  21.1122070  32.2774850
 160.0283670  13.6327730  47.2676470 160.3529440  12.9017390  47.7934450
 160.0640180  13.3141370  46.3657460 146.7275230  24.6541310  46.6876430
 146.3430020  24.0134980  47.2859390 147.0387420  25.3577430  47.2571160
 152.8772370  21.5017850  42.1685050 153.2442500  21.0276420  42.9146390
 152.6877430  22.3759420  42.5093390 145.7412860  16.2461540  38.2978520
 145.4559780  15.8817210  39.1357140 145.6791720  15.5142000  37.6841660
 150.6671740  20.5426490  44.4869260 150.3628810  21.4218470  44.7119620
 151.6218200  20.6026280  44.5226700 149.1953530  24.7487480  35.0836110
 148.4215790  24.2085100  34.9234830 149.9248160  24.2294090  34.7453870
 159.9541510  23.7452840  40.8762500 160.6740630  24.2408130  40.4858610
 159.7523330  23.0670730  40.2316370 155.4151450  15.1390800  35.0191890
 154.6016060  14.6403970  34.9437200 155.2213400  15.9789050  34.6028240
 155.3360310  23.8161900  46.7631500 155.2697620  22.8957570  46.5089090
 154.7065450  23.9137340  47.4776140 158.1299840  19.5110450  33.3154050
 159.0179460  19.8227680  33.1405390 158.1004930  18.6382700  32.9234630
 149.2390930  24.4167860  38.7214920 149.7569600  23.6136120  38.6671810
 148.7874950  24.3547000  39.5631750 154.1260430  25.6834140  33.9942220
 154.4676130  26.4276370  33.4985540 153.2973140  25.9965260  34.3567050
 146.7235470  21.3829230  45.6340620 146.3650410  22.0483080  46.2213960
 146.4290030  20.5512780  46.0053240 149.9248590  21.8413470  48.5180170
 149.6248730  21.9870650  47.6207990 150.6959830  21.2818760  48.4253560
 155.2677040  26.6382470  46.5135300 155.2821580  25.7063430  46.2954210
 154.5602140  26.7242230  47.1525070 160.4014110  20.8222290  32.7833910
 160.3177830  21.2536510  31.9330350 161.1208300  21.2820640  33.2160730
 161.4788250  23.2789810  45.8603880 160.7536440  23.8718590  45.6633270
 162.0063710  23.2713350  45.0617250 161.4301360  27.6764550  35.5116040
 160.7877520  27.0220170  35.7859760 161.0432020  28.0819640  34.7356710
 157.0087840  25.0049980  39.3587730 157.3611660  24.4078110  38.6989100
 156.1250170  24.6794210  39.5295980 153.0951120  25.7647670  36.7658140
 153.7822250  26.3116880  37.1465730 152.3083540  26.3088400  36.8007750
 145.2343520  21.3820490  32.2575220 146.1038370  21.6645290  32.5411140
 144.7433840  22.1956360  32.1424030 152.3978330  22.7693700  36.3783500
 152.8541110  23.5798950  36.6043690 152.0466540  22.4516840  37.2101990
 154.7010940  28.2800040  43.6075800 155.3453160  28.4859420  44.2849220
 155.0640380  27.5188440  43.1546650 148.2990110  13.1131350  36.8506020
 148.1704740  13.1049250  37.7990940 147.4752130  13.4514440  36.4997030
 155.9743020  26.2832390  42.3253250 156.6165250  25.5825550  42.4385420
 156.4992370  27.0630830  42.1450140 159.8198740  26.5681010  32.0492390
 159.5936320  25.8511450  32.6417030 159.4294940  26.3193450  31.2114140
 157.7480640  27.0827290  45.5289310 158.0836880  27.6693980  46.2067230
 156.8280980  26.9520000  45.7587100 145.2984040  14.8722470  46.3112720
 144.5842560  15.0719390  46.9165330 145.7179080  14.0962040  46.6827520
 159.4014990  24.4852950  33.7106550 159.1136690  24.9465640  34.4984430
 160.1967160  24.0250720  33.9790770 145.5856630  28.8602730  47.2979250
 145.6947750  27.9197470  47.1574640 144.9337190  29.1257480  46.6492980
 153.5769220  27.1318620  48.6977370 153.2566090  26.4127860  49.2423060
 152.9027580  27.8073690  48.7713430 151.6183390  27.9779070  33.6410520
 151.6093490  28.7108760  33.0255030 150.6981750  27.7310650  33.7337480
 147.2190030  23.1993960  34.3857280 146.6117980  23.9392860  34.3952580
 147.6939380  23.2893320  33.5595480 156.7922820  17.3644780  44.0614170
 157.1603640  16.5439990  44.3893740 155.9321020  17.4246670  44.4769820
 160.1584850  16.3201720  34.8701730 159.5298010  16.4247390  34.1559960
 159.6636770  16.5398500  35.6595610 154.6042990  28.0407310  32.3035710
 154.7054970  27.8371300  31.3737690 153.7044730  27.7865590  32.5083490
 152.1268880  18.5987670  36.2859610 151.4185030  19.0674010  36.7273220
 152.4113360  17.9409680  36.9204800 153.7524810  20.0184370  44.2852140
 154.2510060  20.4930190  44.9503990 153.8947760  19.0947890  44.4922170
 156.1584310  15.3238330  37.7255400 156.0352090  15.3424460  36.7764910
 157.1068870  15.3717270  37.8453800 153.2461100  30.5593630  36.9983380
 153.5002600  30.5215020  36.0762750 152.2973580  30.4326960  36.9911630
 150.3303900  16.9072750  33.6610320 151.1794430  17.3442900  33.5950510
 149.9635170  17.2193010  34.4882380 160.9591670  16.2352330  45.1280530
 160.4565270  16.9757730  45.4674340 161.7748330  16.6236330  44.8117320
 159.2513680  21.4785510  38.5741890 158.3103820  21.4935740  38.7489580
 159.5657750  20.6921470  39.0202190 149.2295320  23.1605110  32.1345850
 149.9958590  23.0486470  32.6971280 149.3070010  22.4643080  31.4822620
 147.9242080  20.5930180  32.8178740 148.0045670  19.6457690  32.9296140
 148.8161830  20.9237060  32.9239400 161.2539260  28.6494360  40.2496150
 161.3786680  29.4725530  40.7219960 162.1204820  28.4385090  39.9020300
 148.7256790  30.7425570  39.9213280 149.4619270  30.1941030  40.1921850
 149.1097710  31.6081580  39.7819270 145.6102270  26.8099140  35.7954790
 144.6842050  27.0520280  35.7860200 146.0758700  27.6373400  35.6739540
 147.7315070  29.9271640  49.1098860 148.5327800  30.2483690  49.5234260
 147.2166890  29.5667220  49.8318770 156.5679700  26.0351510  49.0574270
 155.9617860  26.0583110  48.3170020 156.2633810  25.3034550  49.5941520
 157.9980070  29.7631800  47.6683680 158.9501820  29.6789820  47.6183920
 157.8508290  30.4273510  48.3417470 160.8889270  29.1426010  33.1675590
 160.6030780  28.7291150  32.3529770 160.6908820  30.0713720  33.0476110
 145.4512880  22.4145100  48.0534910 145.9551900  21.8352380  48.6251140
 144.7120300  22.6985330  48.5911280 152.3536500  25.1359290  31.6081200
 152.2487140  24.5211640  32.3342580 152.1860720  24.6125180  30.8244210
 152.5050820  23.8216090  47.5870430 151.7396490  24.3901090  47.5025100
 152.6866780  23.5292300  46.6938660 155.5939230  24.1979320  32.2123190
 155.0449330  24.6448620  32.8565930 156.2158490  23.6928570  32.7360860
 159.6474170  25.5521420  48.1445450 160.3883640  25.8897180  47.6412910
 158.8846850  25.7213480  47.5915220 147.4835960  20.5574690  48.9484980
 147.5241300  20.2588560  49.8570210 148.3381460  20.9582300  48.7892500
 151.2614350  23.1570240  34.1088490 151.6830770  22.9910110  34.9519880
 151.3865190  22.3470470  33.6143630 149.4241770  19.1366790  46.9159470
 148.8938230  18.6457740  46.2882810 150.0929840  19.5650990  46.3817400
 153.7741990  22.1807850  31.3565590 154.2947650  21.4656870  30.9906740
 154.4210390  22.8193720  31.6566100 158.3219830  23.6036250  46.6800660
 158.7360850  23.7581330  47.5291080 157.3870830  23.7291470  46.8426440
 158.7942000  20.9432410  48.6839810 159.3762770  20.1884730  48.5960290
 158.9703770  21.4739850  47.9071290 149.9114070  16.1029160  46.9956760
 149.8170940  15.4849910  46.2707630 149.3311460  16.8295450  46.7686670
 152.6775510  14.6602400  44.0284150 152.2292810  14.6826660  43.1829700
 152.0440710  14.2621420  44.6254450 153.0835060  23.5556730  44.6496590
 153.5023170  24.3989460  44.4772830 152.1643690  23.6928770  44.4203370
 155.4198960  21.2872910  46.0334430 155.5395170  20.6914050  46.7729270
 156.2792960  21.3242600  45.6135730 157.7586860  21.8410100  44.6096940
 157.2322080  22.3652720  44.0062080 158.1018200  22.4737490  45.2406670
 150.1573250  19.2303470  31.0546650 149.9562310  18.3670830  31.4159990
 149.9865300  19.1436830  30.1168250 150.9342480  29.8609740  45.7654320
 150.3963570  30.5855800  45.4463020 151.1876440  29.3840080  44.9751660
 152.1867730  17.8294260  47.2910250 152.7767420  17.5210110  47.9788070
 151.3687970  17.3574010  47.4470150 157.0061160  17.4460070  47.5243270
 156.3176680  16.7841610  47.4593260 157.7267180  16.9998340  47.9691730
 157.6361560  14.0411700  33.5833530 157.9163850  13.1979600  33.9392950
 156.8627290  14.2734810  34.0972280 148.9556050  16.3304090  31.0424530
 149.2581950  16.3371520  30.1343680 149.6950640  15.9801950  31.5392190
 153.7904690  31.0960950  46.0240970 153.7163390  31.9996090  46.3313340
 152.8883530  30.7772850  45.9963040 152.1740980  15.2738710  32.0280730
 151.8262980  14.5962700  31.4483180 152.3753750  14.8128220  32.8424120
 147.9786180  25.6346510  31.8754330 148.4161050  26.1776180  32.5311910
 148.4633910  24.8093460  31.8850670 145.1931980  28.4235540  39.3274590
 145.5234990  27.5556600  39.0953230 145.6222980  28.6294060  40.1579550
 149.7893900  26.7544550  36.9876560 149.4889440  26.6309520  37.8880470
 149.6831390  25.8953140  36.5792290 145.6822190  29.2906130  42.0656220
 145.2453180  29.4706930  42.8980370 146.2499870  30.0480750  41.9237940
 161.3184370  28.7923130  46.3533530 160.7186360  28.8515690  45.6097450
 161.4478270  27.8528110  46.4830380 162.5585820  26.5340950  31.6903240
 161.7278780  26.6017600  32.1610470 162.7357650  27.4245070  31.3870100
 162.0142280  23.2788430  34.1937440 162.7761190  23.8485080  34.2997130
 162.0296650  22.7115630  34.9645750 145.5146620  21.8026360  38.4245100
 144.8595460  21.5338000  37.7804800 146.3524570  21.6930840  37.9747080
 163.0202250  24.1338530  39.0379370 163.3911080  23.3505850  38.6315340
 163.6604180  24.8227630  38.8596670 160.0036010  25.5175110  44.4509690
 159.1895850  25.9472270  44.7135480 160.4110210  26.1293520  43.8378740
 162.0661450  23.5722800  31.3509960 162.3410290  24.4801680  31.2229180
 161.8772190  23.5085330  32.2871950 158.4637060  16.5967650  32.6463590
 158.8821940  16.4098630  31.8060250 158.1573120  15.7446700  32.9566520
 161.9626790  21.5091790  36.3439390 161.5870390  20.7419720  35.9120680
 161.2329910  21.8914490  36.8314320 146.5522550  22.1878930  42.9648440
 146.9195590  22.1006330  43.8444460 145.9833370  21.4245480  42.8655300
 161.3526410  20.6563310  45.9778910 161.1212500  20.4276060  45.0776860
 161.6130960  21.5762860  45.9323800 146.1038550  19.0988020  46.8706860
 145.2094600  19.0654780  47.2100570 146.6436100  19.2974810  47.6358110
 159.7914480  15.8819740  48.7558610 160.6684660  15.8903140  49.1392610
 159.8035320  15.1450580  48.1450960 144.7284700  19.0125290  34.3670430
 143.8248780  19.2755490  34.1922090 145.2125320  19.2836460  33.5870390
 161.2377750  19.7349280  39.6446630 161.7615230  19.2411930  39.0136800
 161.8237170  19.8699640  40.3894200 161.4167470  19.8189150  43.1666180
 160.4670180  19.7852690  43.2811170 161.5980480  20.7289260  42.9315950
 147.2711910  18.0690830  32.2764810 147.9803610  17.6474050  31.7912090
 146.5551850  18.1366060  31.6448160 146.9186070  14.1230160  31.3167460
 147.6414200  14.6639100  31.6348680 147.1910590  13.8493580  30.4409000
 160.7277720  18.9922630  35.5839040 161.2236840  18.7593500  36.3687920
 160.5293790  18.1534470  35.1676680 146.6078260  13.3736350  41.2190080
 147.2554450  12.8233730  40.7785240 147.0280100  13.6279500  42.0405890
 162.1564880  17.6283580  38.1176720 162.0464160  17.4739620  39.0558990
 162.9172470  17.1004520  37.8752130 160.5030600  13.5677710  44.5759720
 161.1402820  14.1811850  44.9418910 160.6505490  13.6038370  43.6308950
 163.0455150  15.4591500  31.3582860 163.9704460  15.3272680  31.1501150
 163.0230940  15.5384320  32.3119310 163.1193640  16.2302160  33.9839570
 162.3245140  16.1647280  34.5132480 163.3236920  17.1652800  33.9724920
 160.0612060  30.2693710  37.9777960 160.6571130  29.9478280  37.3012380
 160.3190210  29.7965530  38.7691230 146.3610260  13.5292020  43.9615400
 146.0125080  13.9855840  44.7273580 146.0297960  12.6349150  44.0437830
 147.9674630  26.7011620  48.1268590 147.9244260  26.3304530  49.0083050
 148.0985640  27.6389190  48.2670410 151.6680660  28.2571210  43.7278310
 151.4272020  28.5245770  42.8408830 152.6083300  28.4276940  43.7829170
 153.8735080  14.7203900  47.4834820 153.8123970  15.3125730  48.2330230
 154.8135460  14.6129860  47.3385080 156.5109640  14.3773960  47.1227110
 157.1250050  14.6953250  46.4608190 157.0559200  13.8922550  47.7422970
 162.9284820  30.2765590  44.5288950 162.4343100  30.6734460  43.8116080
 162.3198110  29.6514800  44.9226230 147.0330900  13.0568220  47.2366170
 147.5813890  12.8756270  46.4732280 147.0986210  12.2662330  47.7722480
 147.8062660  29.6473870  45.2466370 147.2122980  29.5158570  45.9856410
 147.7986500  28.8112010  44.7808470 157.2517680  12.9406100  43.4496400
 156.3777520  13.2741210  43.2469330 157.1428430  12.4679280  44.2748270
 158.1589660  15.1476970  44.8338120 157.8303020  14.3328730  44.4539850
 159.1071960  15.1046780  44.7103810 160.6124270  30.9189010  41.8075690
 160.1527240  31.6704820  41.4333710 159.9836730  30.1995480  41.7490490
 147.4374890  27.0132250  44.1974410 146.7108950  26.3937540  44.1300360
 147.4984040  27.4072860  43.3272490 151.0419990  29.2277250  40.9823820
 151.5585010  28.6164610  40.4572080 151.6917370  29.7306030  41.4734830
 153.7815490  30.1185740  41.8092800 154.0693300  29.8640040  40.9325810
 154.2938710  29.5663100  42.3998370 154.9992500  13.8575940  42.3889310
 154.2164290  14.3321440  42.6686070 154.7055430  12.9530770  42.2802490
 159.5513570  14.5599040  40.4338400 159.9921660  14.5044140  39.5860000
 159.2821160  15.4757050  40.5048580 161.4152140  14.1914280  38.4447220
 161.3540540  13.2475500  38.2978240 162.1944170  14.2994370  38.9900680
 145.7204890  30.3306640  37.4071170 145.5526930  29.6977320  38.1053060
 144.8539400  30.5366040  37.0565360 146.3432910  14.1623420  34.9103030
 147.1012270  14.2752300  34.3367060 145.8810080  14.9992620  34.8646460
 152.8846720  16.2762690  37.9005340 152.0721230  15.9019580  37.5601220
 153.3888360  15.5207770  38.2026530 157.3871700  12.9405140  39.1388410
 157.9901070  13.5125350  39.6136930 156.6464690  13.5044580  38.9162310
 160.5306300  13.3426700  34.4128690 160.7256930  14.2410150  34.6796120
 159.7436170  13.1113780  34.9061640 147.3267590  29.0239870  34.8521310
 146.8015210  29.4047900  34.1483270 147.2512170  29.6490640  35.5731020
 148.7158060  14.6887470  33.4505000 149.2450820  13.9017270  33.3212950
 149.3486380  15.3678660  33.6840530 150.9095900  14.4262610  36.5050390
 150.2798640  13.7249920  36.6720520 150.3701040  15.1866740  36.2883550
 153.8487850  31.0401840  49.1761000 154.7755160  30.8046110  49.2196960
 153.8338280  31.8673840  48.6947030 162.0832910  30.5827410  36.1735250
 162.2585100  29.8965150  35.5296170 161.3854480  31.1074460  35.7811920
 151.0351460  13.7046590  48.9402880 150.7535730  14.2080190  48.1763700
 151.4171160  12.9068340  48.5745010 149.0875350  27.0886980  33.7316890
 148.4584230  27.5572080  34.2802720 149.2023180  26.2436200  34.1663080
 157.6366920  13.1200170  49.5183350 157.5232370  13.4394780  50.4134870
 158.4536660  13.5212680  49.2220630 160.4165410  30.2671700  49.0002040
 161.2090730  29.7720930  48.7928000 160.7098560  30.9461840  49.6077650
 156.5425070  21.1392640  19.8818090 156.4619120  20.2247250  19.6109800
 156.1289490  21.6359710  19.1757800 154.6743110  22.9171660  21.7627360
 153.8985210  22.4372100  22.0525930 155.3256040  22.2377310  21.5883520
 148.6908940  23.2291470  22.6403120 147.8593820  22.9740180  23.0399630
 149.2989920  23.3002240  23.3761040 158.6950540  27.3231850  20.5426490
 158.2332070  26.5519090  20.8713660 159.5076090  27.3497920  21.0478940
 147.1000890  18.1893360  16.4245510 146.2117590  18.5309330  16.3225390
 147.3842080  17.9893680  15.5326340 145.0633900  20.7899010  22.3085210
 145.6350010  20.0221210  22.3088850 145.0635440  21.0887770  21.3991820
 154.9213850  29.6089860  20.1630480 154.3025290  30.0647360  19.5924920
 155.7765630  29.7641320  19.7620180 154.1152100  25.5928850  21.7697520
 154.0460380  24.6518790  21.6086650 154.8771960  25.6830260  22.3420090
 146.3058770  16.1983370  24.0954140 146.1261610  15.3009120  24.3756900
 145.9038850  16.7455240  24.7701090 155.1457270  18.3999230  21.9966450
 155.5222090  17.5271110  21.8840120 155.0476780  18.7357930  21.1056890
 149.2762280  16.7724860  17.4583890 149.3829030  17.6728590  17.7652650
 148.3654640  16.7242830  17.1678540 158.9281390  15.8949670  18.9294790
 159.7491010  15.4046240  18.9720270 158.9615470  16.4847330  19.6826630
 146.9245440  18.6943870  22.7036480 147.6055550  18.9582240  23.3223880
 146.6093490  17.8544740  23.0374490 151.1170010  19.7411230  21.7909070
 151.6248230  20.2392200  22.4314090 151.6483250  18.9646430  21.6148430
 163.2180940  17.9116420  25.4938420 162.5133110  18.2998130  24.9753530
 163.4838860  18.6066710  26.0959350 149.4006110  14.3809790  26.0572490
 149.4024550  14.8982180  25.2518390 148.5710420  13.9039970  26.0342420
 155.7877200  24.4929100  17.5562390 155.1694470  24.9578550  16.9925110
 156.3000450  25.1856580  17.9731900 150.6508960  24.0204970  24.2345990
 150.3178340  24.6473890  24.8767060 150.8275640  24.5466850  23.4547660
 159.1642870  17.8350050  21.7022330 158.4598440  18.1234940  22.2825440
 159.5255030  18.6450160  21.3421890 149.0821440  16.0919750  24.0642940
 149.4238250  16.9361800  23.7696810 148.1437250  16.2403490  24.1808280
 149.8628060  25.9885770  26.0495170 150.4802060  26.6636850  25.7679620
 149.0021180  26.3973750  25.9582670 160.7805650  27.4525180  23.9649810
 160.0969170  28.1224290  23.9566480 161.3199940  27.6505830  23.1994670
 162.2329790  17.2804840  22.0931540 161.2854700  17.3143820  22.2246970
 162.5579780  18.0943790  22.4780900 152.7649330  13.5802020  20.3887530
 153.0724310  13.0248910  19.6723030 151.8350030  13.7146480  20.2060520
 158.3164390  29.2969310  22.6794990 158.3291550  28.8931600  21.8117250
 157.7639610  30.0716600  22.5756420 159.6109810  26.0185530  17.7685160
 159.5006140  25.0759860  17.8934580 159.6078060  26.3801170  18.6547920
 157.7149830  24.1999150  24.0077600 158.1318620  23.9859260  23.1731060
 158.4389650  24.4571940  24.5786220 155.1530090  21.6450850  17.1247650
 154.2259370  21.5788230  17.3536120 155.3054910  22.5830980  17.0102890
 155.1399170  17.9167850  14.1214810 154.2002840  18.0781810  14.2067270
 155.4582430  18.6353530  13.5750800 161.6611930  22.5986370  24.0993840
 160.8330560  22.6679460  23.6243970 162.2562410  23.1840680  23.6309670
 159.1827380  23.2071150  17.6282900 158.5639800  22.8690700  16.9809200
 159.1651830  22.5630910  18.3362090 158.6253940  19.3855690  25.0448710
 158.2125120  20.2109400  25.2988700 157.8929890  18.8000730  24.8525070
 150.7586730  22.1715590  19.9067380 150.3543730  21.4592840  19.4113280
 150.8449850  21.8268830  20.7955420 151.2268430  25.8583150  22.0706590
 150.9296720  25.2528620  21.3914370 152.1768250  25.8960460  21.9595950
 149.4715350  18.9458800  23.6866420 150.0229940  19.0554140  22.9119670
 149.9858860  19.3196400  24.4021650 159.3154040  29.4315020  25.7329690
 158.8384600  30.2387210  25.5402300 158.6315830  28.7793350  25.8855900
 150.3186860  25.5964840  28.7214390 149.4215390  25.8204810  28.9687790
 150.3439730  25.7199780  27.7725790 157.3592080  22.4457960  14.6355650
 157.7985360  21.6080390  14.4893470 158.0720500  23.0787360  14.7219790
 149.1458080  22.4678160  27.2971760 149.0065850  23.3400960  27.6659160
 148.2639440  22.1250970  27.1519700 155.4687460  27.3854030  18.6036890
 155.9083370  28.1278360  18.1892280 155.4074350  27.6280600  19.5275850
 150.9438430  28.4099860  29.5056910 150.9153860  28.8142810  28.6385340
 150.7803400  27.4810220  29.3428510 160.9409220  13.7000770  12.9496690
 160.6281880  13.7927600  13.8495760 161.7021690  14.2781800  12.8994120
 147.4591360  21.0660570  17.4074030 147.3388960  21.7922660  16.7955300
 147.1492250  20.2963480  16.9301940 162.8953250  29.1926960  30.8021080
 163.3712970  29.6709850  31.4810160 163.5160410  29.1244450  30.0766580
 162.2986500  26.3839810  27.9621090 162.4249560  26.1451690  27.0438270
 162.3407880  25.5524350  28.4343170 158.1357640  30.3723150  15.9599900
 157.9758780  30.0826090  16.8581730 157.9704350  29.5963280  15.4245130
 157.8383770  27.8810710  14.5197900 157.1448930  27.8788000  13.8600180
 158.5806630  27.4570030  14.0892070 157.4033700  29.5073420  18.5946390
 157.8590650  28.7262800  18.9085010 157.7426220  30.2180240  19.1387570
 162.1510510  18.4372270  28.9270830 161.5354780  18.9451940  28.3986290
 161.8306930  17.5370600  28.8696770 149.9255020  14.4095640  20.7897700
 149.4823170  15.1905180  20.4582220 150.4840010  14.7325530  21.4968640
 154.2124830  17.2764160  26.3933020 153.7504200  17.4847180  27.2052960
 153.8102940  16.4623510  26.0903690 159.2129340  18.4973110  27.5229680
 158.3622930  18.1978860  27.8438750 159.0531130  18.7415120  26.6113500
 156.3079050  19.9974860  29.6228470 156.6332460  19.1638610  29.2830700
 157.0959380  20.5203380  29.7706800 153.0413840  14.0306340  15.6703530
 152.4168020  14.0266210  16.3956840 152.9543960  13.1637300  15.2739500
 151.9630920  14.9542970  22.6487300 152.2603250  15.8605800  22.5679320
 152.5116480  14.4661750  22.0346870 149.7169240  19.5329210  18.5178950
 149.4910160  19.3166380  19.4225570 148.9361770  19.9657670  18.1724920
 156.9467000  19.5392580  17.1169600 156.3475890  20.2628380  16.9333220
 157.4946610  19.4769360  16.3346050 152.1568450  20.4314790  29.1839220
 152.0612050  19.4909520  29.0339620 153.0000430  20.6529860  28.7887290
 155.5531870  18.1756120  19.1472880 155.9461440  18.4928320  18.3341570
 155.9148720  17.2968000  19.2617400 147.2878990  16.8428460  27.3373000
 146.8942380  17.6903670  27.5445780 146.5997390  16.2054830  27.5281640
 153.8624040  16.9263430  30.4069740 153.1722360  16.7335630  31.0415830
 154.6056340  17.2098070  30.9394040 144.5896040  14.7656920  21.3703080
 144.3009090  15.3359780  22.0828060 145.3341800  14.2861370  21.7334310
 144.7766270  18.7077040  12.5805800 144.6940940  19.6507800  12.7220790
 144.4249330  18.5651950  11.7018150 156.1387010  20.7661870  23.2423660
 155.4068130  21.2748680  23.5913760 155.7411350  19.9491850  22.9412440
 152.5764400  17.4416070  21.6476150 152.5800460  17.0006020  20.7980690
 153.4715520  17.7633400  21.7547970 148.4266780  17.3242560  20.6070360
 148.0866830  17.8017790  21.3637410 147.6644100  16.8707680  20.2471460
 152.6384550  18.4428150  14.6382910 152.7597370  18.4014630  15.5868730
 152.2533060  19.3052300  14.4829640 156.6012920  16.2195550  22.6546600
 156.6185660  16.6704200  23.4988450 156.3528500  15.3201190  22.8680040
 151.6506050  20.7529290  14.0366210 151.0822950  20.3047540  13.4102120
 152.3595050  21.1122070  13.5031360 160.0283670  13.6327730  28.4932980
 160.3529440  12.9017390  29.0190960 160.0640180  13.3141370  27.5913970
 146.7275230  24.6541310  27.9132940 146.3430020  24.0134980  28.5115900
 147.0387420  25.3577430  28.4827670 152.8772370  21.5017850  23.3941560
 153.2442500  21.0276420  24.1402900 152.6877430  22.3759420  23.7349900
 145.7412860  16.2461540  19.5235030 145.4559780  15.8817210  20.3613650
 145.6791720  15.5142000  18.9098170 150.6671740  20.5426490  25.7125770
 150.3628810  21.4218470  25.9376130 151.6218200  20.6026280  25.7483210
 159.9541510  23.7452840  22.1019010 160.6740630  24.2408130  21.7115120
 159.7523330  23.0670730  21.4572880 155.4151450  15.1390800  16.2448400
 154.6016060  14.6403970  16.1693710 155.2213400  15.9789050  15.8284750
 155.3360310  23.8161900  27.9888010 155.2697620  22.8957570  27.7345600
 154.7065450  23.9137340  28.7032650 158.1299840  19.5110450  14.5410560
 159.0179460  19.8227680  14.3661900 158.1004930  18.6382700  14.1491140
 154.1260430  25.6834140  15.2198730 154.4676130  26.4276370  14.7242050
 153.2973140  25.9965260  15.5823560 146.7235470  21.3829230  26.8597130
 146.3650410  22.0483080  27.4470470 146.4290030  20.5512780  27.2309750
 149.9248590  21.8413470  29.7436680 149.6248730  21.9870650  28.8464500
 150.6959830  21.2818760  29.6510070 155.2677040  26.6382470  27.7391810
 155.2821580  25.7063430  27.5210720 154.5602140  26.7242230  28.3781580
 160.4014110  20.8222290  14.0090420 160.3177830  21.2536510  13.1586860
 161.1208300  21.2820640  14.4417240 161.4788250  23.2789810  27.0860390
 160.7536440  23.8718590  26.8889780 162.0063710  23.2713350  26.2873760
 161.4301360  27.6764550  16.7372550 160.7877520  27.0220170  17.0116270
 161.0432020  28.0819640  15.9613220 157.0087840  25.0049980  20.5844240
 157.3611660  24.4078110  19.9245610 156.1250170  24.6794210  20.7552490
 153.0951120  25.7647670  17.9914650 153.7822250  26.3116880  18.3722240
 152.3083540  26.3088400  18.0264260 145.2343520  21.3820490  13.4831730
 146.1038370  21.6645290  13.7667650 144.7433840  22.1956360  13.3680540
 152.3978330  22.7693700  17.6040010 152.8541110  23.5798950  17.8300200
 152.0466540  22.4516840  18.4358500 154.7010940  28.2800040  24.8332310
 155.3453160  28.4859420  25.5105730 155.0640380  27.5188440  24.3803160
 148.2990110  13.1131350  18.0762530 148.1704740  13.1049250  19.0247450
 147.4752130  13.4514440  17.7253540 155.9743020  26.2832390  23.5509760
 156.6165250  25.5825550  23.6641930 156.4992370  27.0630830  23.3706650
 159.8198740  26.5681010  13.2748900 159.5936320  25.8511450  13.8673540
 159.4294940  26.3193450  12.4370650 157.7480640  27.0827290  26.7545820
 158.0836880  27.6693980  27.4323740 156.8280980  26.9520000  26.9843610
 145.2984040  14.8722470  27.5369230 144.5842560  15.0719390  28.1421840
 145.7179080  14.0962040  27.9084030 159.4014990  24.4852950  14.9363060
 159.1136690  24.9465640  15.7240940 160.1967160  24.0250720  15.2047280
 153.5769220  27.1318620  29.9233880 153.2566090  26.4127860  30.4679570
 152.9027580  27.8073690  29.9969940 147.2190030  23.1993960  15.6113790
 146.6117980  23.9392860  15.6209090 147.6939380  23.2893320  14.7851990
 156.7922820  17.3644780  25.2870680 157.1603640  16.5439990  25.6150250
 155.9321020  17.4246670  25.7026330 160.1584850  16.3201720  16.0958240
 159.5298010  16.4247390  15.3816470 159.6636770  16.5398500  16.8852120
 154.6042990  28.0407310  13.5292220 154.7054970  27.8371300  12.5994200
 153.7044730  27.7865590  13.7340000 152.1268880  18.5987670  17.5116120
 151.4185030  19.0674010  17.9529730 152.4113360  17.9409680  18.1461310
 153.7524810  20.0184370  25.5108650 154.2510060  20.4930190  26.1760500
 153.8947760  19.0947890  25.7178680 156.1584310  15.3238330  18.9511910
 156.0352090  15.3424460  18.0021420 157.1068870  15.3717270  19.0710310
 150.3303900  16.9072750  14.8866830 151.1794430  17.3442900  14.8207020
 149.9635170  17.2193010  15.7138890 160.9591670  16.2352330  26.3537040
 160.4565270  16.9757730  26.6930850 161.7748330  16.6236330  26.0373830
 159.2513680  21.4785510  19.7998400 158.3103820  21.4935740  19.9746090
 159.5657750  20.6921470  20.2458700 149.2295320  23.1605110  13.3602360
 149.9958590  23.0486470  13.9227790 149.3070010  22.4643080  12.7079130
 147.9242080  20.5930180  14.0435250 148.0045670  19.6457690  14.1552650
 148.8161830  20.9237060  14.1495910 161.2539260  28.6494360  21.4752660
 161.3786680  29.4725530  21.9476470 162.1204820  28.4385090  21.1276810
 147.7315070  29.9271640  30.3355370 148.5327800  30.2483690  30.7490770
 147.2166890  29.5667220  31.0575280 156.5679700  26.0351510  30.2830780
 155.9617860  26.0583110  29.5426530 156.2633810  25.3034550  30.8198030
 157.9980070  29.7631800  28.8940190 158.9501820  29.6789820  28.8440430
 157.8508290  30.4273510  29.5673980 160.8889270  29.1426010  14.3932100
 160.6030780  28.7291150  13.5786280 160.6908820  30.0713720  14.2732620
 145.4512880  22.4145100  29.2791420 145.9551900  21.8352380  29.8507650
 144.7120300  22.6985330  29.8167790 152.3536500  25.1359290  12.8337710
 152.2487140  24.5211640  13.5599090 152.1860720  24.6125180  12.0500720
 152.5050820  23.8216090  28.8126940 151.7396490  24.3901090  28.7281610
 152.6866780  23.5292300  27.9195170 155.5939230  24.1979320  13.4379700
 155.0449330  24.6448620  14.0822440 156.2158490  23.6928570  13.9617370
 159.6474170  25.5521420  29.3701960 160.3883640  25.8897180  28.8669420
 158.8846850  25.7213480  28.8171730 147.4835960  20.5574690  30.1741490
 147.5241300  20.2588560  31.0826720 148.3381460  20.9582300  30.0149010
 151.2614350  23.1570240  15.3345000 151.6830770  22.9910110  16.1776390
 151.3865190  22.3470470  14.8400140 149.4241770  19.1366790  28.1415980
 148.8938230  18.6457740  27.5139320 150.0929840  19.5650990  27.6073910
 153.7741990  22.1807850  12.5822100 154.2947650  21.4656870  12.2163250
 154.4210390  22.8193720  12.8822610 158.3219830  23.6036250  27.9057170
 158.7360850  23.7581330  28.7547590 157.3870830  23.7291470  28.0682950
 158.7942000  20.9432410  29.9096320 159.3762770  20.1884730  29.8216800
 158.9703770  21.4739850  29.1327800 149.9114070  16.1029160  28.2213270
 149.8170940  15.4849910  27.4964140 149.3311460  16.8295450  27.9943180
 152.6775510  14.6602400  25.2540660 152.2292810  14.6826660  24.4086210
 152.0440710  14.2621420  25.8510960 153.0835060  23.5556730  25.8753100
 153.5023170  24.3989460  25.7029340 152.1643690  23.6928770  25.6459880
 155.4198960  21.2872910  27.2590940 155.5395170  20.6914050  27.9985780
 156.2792960  21.3242600  26.8392240 157.7586860  21.8410100  25.8353450
 157.2322080  22.3652720  25.2318590 158.1018200  22.4737490  26.4663180
 150.1573250  19.2303470  12.2803160 149.9562310  18.3670830  12.6416500
 149.9865300  19.1436830  11.3424760 150.9342480  29.8609740  26.9910830
 150.3963570  30.5855800  26.6719530 151.1876440  29.3840080  26.2008170
 152.1867730  17.8294260  28.5166760 152.7767420  17.5210110  29.2044580
 151.3687970  17.3574010  28.6726660 157.0061160  17.4460070  28.7499780
 156.3176680  16.7841610  28.6849770 157.7267180  16.9998340  29.1948240
 157.6361560  14.0411700  14.8090040 157.9163850  13.1979600  15.1649460
 156.8627290  14.2734810  15.3228790 148.9556050  16.3304090  12.2681040
 149.2581950  16.3371520  11.3600190 149.6950640  15.9801950  12.7648700
 152.1740980  15.2738710  13.2537240 151.8262980  14.5962700  12.6739690
 152.3753750  14.8128220  14.0680630 147.9786180  25.6346510  13.1010840
 148.4161050  26.1776180  13.7568420 148.4633910  24.8093460  13.1107180
 161.3184370  28.7923130  27.5790040 160.7186360  28.8515690  26.8353960
 161.4478270  27.8528110  27.7086890 162.5585820  26.5340950  12.9159750
 161.7278780  26.6017600  13.3866980 162.7357650  27.4245070  12.6126610
 162.0142280  23.2788430  15.4193950 162.7761190  23.8485080  15.5253640
 162.0296650  22.7115630  16.1902260 145.5146620  21.8026360  19.6501610
 144.8595460  21.5338000  19.0061310 146.3524570  21.6930840  19.2003590
 163.0202250  24.1338530  20.2635880 163.3911080  23.3505850  19.8571850
 163.6604180  24.8227630  20.0853180 160.0036010  25.5175110  25.6766200
 159.1895850  25.9472270  25.9391990 160.4110210  26.1293520  25.0635250
 162.0661450  23.5722800  12.5766470 162.3410290  24.4801680  12.4485690
 161.8772190  23.5085330  13.5128460 158.4637060  16.5967650  13.8720100
 158.8821940  16.4098630  13.0316760 158.1573120  15.7446700  14.1823030
 161.9626790  21.5091790  17.5695900 161.5870390  20.7419720  17.1377190
 161.2329910  21.8914490  18.0570830 161.3526410  20.6563310  27.2035420
 161.1212500  20.4276060  26.3033370 161.6130960  21.5762860  27.1580310
 146.1038550  19.0988020  28.0963370 145.2094600  19.0654780  28.4357080
 146.6436100  19.2974810  28.8614620 159.7914480  15.8819740  29.9815120
 160.6684660  15.8903140  30.3649120 159.8035320  15.1450580  29.3707470
 144.7284700  19.0125290  15.5926940 143.8248780  19.2755490  15.4178600
 145.2125320  19.2836460  14.8126900 161.2377750  19.7349280  20.8703140
 161.7615230  19.2411930  20.2393310 161.8237170  19.8699640  21.6150710
 161.4167470  19.8189150  24.3922690 160.4670180  19.7852690  24.5067680
 161.5980480  20.7289260  24.1572460 147.2711910  18.0690830  13.5021320
 147.9803610  17.6474050  13.0168600 146.5551850  18.1366060  12.8704670
 146.9186070  14.1230160  12.5423970 147.6414200  14.6639100  12.8605190
 147.1910590  13.8493580  11.6665510 160.7277720  18.9922630  16.8095550
 161.2236840  18.7593500  17.5944430 160.5293790  18.1534470  16.3933190
 146.6078260  13.3736350  22.4446590 147.2554450  12.8233730  22.0041750
 147.0280100  13.6279500  23.2662400 162.1564880  17.6283580  19.3433230
 162.0464160  17.4739620  20.2815500 162.9172470  17.1004520  19.1008640
 160.5030600  13.5677710  25.8016230 161.1402820  14.1811850  26.1675420
 160.6505490  13.6038370  24.8565460 163.0455150  15.4591500  12.5839370
 163.9704460  15.3272680  12.3757660 163.0230940  15.5384320  13.5375820
 163.1193640  16.2302160  15.2096080 162.3245140  16.1647280  15.7388990
 163.3236920  17.1652800  15.1981430 160.0612060  30.2693710  19.2034470
 160.6571130  29.9478280  18.5268890 160.3190210  29.7965530  19.9947740
 146.3610260  13.5292020  25.1871910 146.0125080  13.9855840  25.9530090
 146.0297960  12.6349150  25.2694340 147.9674630  26.7011620  29.3525100
 147.9244260  26.3304530  30.2339560 148.0985640  27.6389190  29.4926920
 151.6680660  28.2571210  24.9534820 151.4272020  28.5245770  24.0665340
 152.6083300  28.4276940  25.0085680 153.8735080  14.7203900  28.7091330
 153.8123970  15.3125730  29.4586740 154.8135460  14.6129860  28.5641590
 156.5109640  14.3773960  28.3483620 157.1250050  14.6953250  27.6864700
 157.0559200  13.8922550  28.9679480 162.9284820  30.2765590  25.7545460
 162.4343100  30.6734460  25.0372590 162.3198110  29.6514800  26.1482740
 147.0330900  13.0568220  28.4622680 147.5813890  12.8756270  27.6988790
 147.0986210  12.2662330  28.9978990 157.2517680  12.9406100  24.6752910
 156.3777520  13.2741210  24.4725840 157.1428430  12.4679280  25.5004780
 158.1589660  15.1476970  26.0594630 157.8303020  14.3328730  25.6796360
 159.1071960  15.1046780  25.9360320 160.6124270  30.9189010  23.0332200
 160.1527240  31.6704820  22.6590220 159.9836730  30.1995480  22.9747000
 151.0419990  29.2277250  22.2080330 151.5585010  28.6164610  21.6828590
 151.6917370  29.7306030  22.6991340 153.7815490  30.1185740  23.0349310
 154.0693300  29.8640040  22.1582320 154.2938710  29.5663100  23.6254880
 154.9992500  13.8575940  23.6145820 154.2164290  14.3321440  23.8942580
 154.7055430  12.9530770  23.5059000 159.5513570  14.5599040  21.6594910
 159.9921660  14.5044140  20.8116510 159.2821160  15.4757050  21.7305090
 161.4152140  14.1914280  19.6703730 161.3540540  13.2475500  19.5234750
 162.1944170  14.2994370  20.2157190 146.3432910  14.1623420  16.1359540
 147.1012270  14.2752300  15.5623570 145.8810080  14.9992620  16.0902970
 152.8846720  16.2762690  19.1261850 152.0721230  15.9019580  18.7857730
 153.3888360  15.5207770  19.4283040 157.3871700  12.9405140  20.3644920
 157.9901070  13.5125350  20.8393440 156.6464690  13.5044580  20.1418820
 160.5306300  13.3426700  15.6385200 160.7256930  14.2410150  15.9052630
 159.7436170  13.1113780  16.1318150 148.7158060  14.6887470  14.6761510
 149.2450820  13.9017270  14.5469460 149.3486380  15.3678660  14.9097040
 150.9095900  14.4262610  17.7306900 150.2798640  13.7249920  17.8977030
 150.3701040  15.1866740  17.5140060 162.0832910  30.5827410  17.3991760
 162.2585100  29.8965150  16.7552680 161.3854480  31.1074460  17.0068430
 151.0351460  13.7046590  30.1659390 150.7535730  14.2080190  29.4020210
 151.4171160  12.9068340  29.8001520 157.6366920  13.1200170  30.7439860
 157.5232370  13.4394780  31.6391380 158.4536660  13.5212680  30.4477140
 160.4165410  30.2671700  30.2258550 161.2090730  29.7720930  30.0184510
 160.7098560  30.9461840  30.8334160 154.6743110  22.9171660   2.9883870
 153.8985210  22.4372100   3.2782440 155.3256040  22.2377310   2.8140030
 148.6908940  23.2291470   3.8659630 147.8593820  22.9740180   4.2656140
 149.2989920  23.3002240   4.6017550 158.6950540  27.3231850   1.7683000
 158.2332070  26.5519090   2.0970170 159.5076090  27.3497920   2.2735450
 148.6710200  27.2631560   4.0617650 148.9738240  26.3729300   3.8827870
 149.4153790  27.8201780   3.8339900 145.0633900  20.7899010   3.5341720
 145.6350010  20.0221210   3.5345360 145.0635440  21.0887770   2.6248330
 154.1152100  25.5928850   2.9954030 154.0460380  24.6518790   2.8343160
 154.8771960  25.6830260   3.5676600 146.3058770  16.1983370   5.3210650
 146.1261610  15.3009120   5.6013410 145.9038850  16.7455240   5.9957600
 155.1457270  18.3999230   3.2222960 155.5222090  17.5271110   3.1096630
 155.0476780  18.7357930   2.3313400 146.9245440  18.6943870   3.9292990
 147.6055550  18.9582240   4.5480390 146.6093490  17.8544740   4.2631000
 151.1170010  19.7411230   3.0165580 151.6248230  20.2392200   3.6570600
 151.6483250  18.9646430   2.8404940 163.2180940  17.9116420   6.7194930
 162.5133110  18.2998130   6.2010040 163.4838860  18.6066710   7.3215860
 149.4006110  14.3809790   7.2829000 149.4024550  14.8982180   6.4774900
 148.5710420  13.9039970   7.2598930 150.6508960  24.0204970   5.4602500
 150.3178340  24.6473890   6.1023570 150.8275640  24.5466850   4.6804170
 159.1642870  17.8350050   2.9278840 158.4598440  18.1234940   3.5081950
 159.5255030  18.6450160   2.5678400 149.0821440  16.0919750   5.2899450
 149.4238250  16.9361800   4.9953320 148.1437250  16.2403490   5.4064790
 149.8628060  25.9885770   7.2751680 150.4802060  26.6636850   6.9936130
 149.0021180  26.3973750   7.1839180 160.7805650  27.4525180   5.1906320
 160.0969170  28.1224290   5.1822990 161.3199940  27.6505830   4.4251180
 162.2329790  17.2804840   3.3188050 161.2854700  17.3143820   3.4503480
 162.5579780  18.0943790   3.7037410 158.3164390  29.2969310   3.9051500
 158.3291550  28.8931600   3.0373760 157.7639610  30.0716600   3.8012930
 157.7149830  24.1999150   5.2334110 158.1318620  23.9859260   4.3987570
 158.4389650  24.4571940   5.8042730 161.6611930  22.5986370   5.3250350
 160.8330560  22.6679460   4.8500480 162.2562410  23.1840680   4.8566180
 158.6253940  19.3855690   6.2705220 158.2125120  20.2109400   6.5245210
 157.8929890  18.8000730   6.0781580 151.2268430  25.8583150   3.2963100
 150.9296720  25.2528620   2.6170880 152.1768250  25.8960460   3.1852460
 149.4715350  18.9458800   4.9122930 150.0229940  19.0554140   4.1376180
 149.9858860  19.3196400   5.6278160 159.3154040  29.4315020   6.9586200
 158.8384600  30.2387210   6.7658810 158.6315830  28.7793350   7.1112410
 150.3186860  25.5964840   9.9470900 149.4215390  25.8204810  10.1944300
 150.3439730  25.7199780   8.9982300 149.1458080  22.4678160   8.5228270
 149.0065850  23.3400960   8.8915670 148.2639440  22.1250970   8.3776210
 150.9438430  28.4099860  10.7313420 150.9153860  28.8142810   9.8641850
 150.7803400  27.4810220  10.5685020 162.8953250  29.1926960  12.0277590
 163.3712970  29.6709850  12.7066670 163.5160410  29.1244450  11.3023090
 145.0976730  24.2375710   4.4399180 145.1757150  24.3724480   3.4954900
 145.7118410  23.5291600   4.6327300 162.2986500  26.3839810   9.1877600
 162.4249560  26.1451690   8.2694780 162.3407880  25.5524350   9.6599680
 156.1603240  30.0867810   7.7572410 156.6747910  29.9975820   8.5594840
 155.3172320  30.4327510   8.0500320 162.1510510  18.4372270  10.1527340
 161.5354780  18.9451940   9.6242800 161.8306930  17.5370600  10.0953280
 145.1536250  25.2789880   6.9793640 145.3167290  24.8095240   6.1613010
 145.6188700  24.7713440   7.6442480 149.9255020  14.4095640   2.0154210
 149.4823170  15.1905180   1.6838730 150.4840010  14.7325530   2.7225150
 154.2124830  17.2764160   7.6189530 153.7504200  17.4847180   8.4309470
 153.8102940  16.4623510   7.3160200 159.2129340  18.4973110   8.7486190
 158.3622930  18.1978860   9.0695260 159.0531130  18.7415120   7.8370010
 156.3079050  19.9974860  10.8484980 156.6332460  19.1638610  10.5087210
 157.0959380  20.5203380  10.9963310 151.9630920  14.9542970   3.8743810
 152.2603250  15.8605800   3.7935830 152.5116480  14.4661750   3.2603380
 152.1568450  20.4314790  10.4095730 152.0612050  19.4909520  10.2596130
 153.0000430  20.6529860  10.0143800 147.2878990  16.8428460   8.5629510
 146.8942380  17.6903670   8.7702290 146.5997390  16.2054830   8.7538150
 153.8624040  16.9263430  11.6326250 153.1722360  16.7335630  12.2672340
 154.6056340  17.2098070  12.1650550 144.5896040  14.7656920   2.5959590
 144.3009090  15.3359780   3.3084570 145.3341800  14.2861370   2.9590820
 156.1387010  20.7661870   4.4680170 155.4068130  21.2748680   4.8170270
 155.7411350  19.9491850   4.1668950 152.5764400  17.4416070   2.8732660
 152.5800460  17.0006020   2.0237200 153.4715520  17.7633400   2.9804480
 148.4266780  17.3242560   1.8326870 148.0866830  17.8017790   2.5893920
 147.6644100  16.8707680   1.4727970 156.6012920  16.2195550   3.8803110
 156.6185660  16.6704200   4.7244960 156.3528500  15.3201190   4.0936550
 160.0283670  13.6327730   9.7189490 160.3529440  12.9017390  10.2447470
 160.0640180  13.3141370   8.8170480 146.7275230  24.6541310   9.1389450
 146.3430020  24.0134980   9.7372410 147.0387420  25.3577430   9.7084180
 152.8772370  21.5017850   4.6198070 153.2442500  21.0276420   5.3659410
 152.6877430  22.3759420   4.9606410 150.6671740  20.5426490   6.9382280
 150.3628810  21.4218470   7.1632640 151.6218200  20.6026280   6.9739720
 159.9541510  23.7452840   3.3275520 160.6740630  24.2408130   2.9371630
 159.7523330  23.0670730   2.6829390 155.3360310  23.8161900   9.2144520
 155.2697620  22.8957570   8.9602110 154.7065450  23.9137340   9.9289160
 146.7235470  21.3829230   8.0853640 146.3650410  22.0483080   8.6726980
 146.4290030  20.5512780   8.4566260 149.9248590  21.8413470  10.9693190
 149.6248730  21.9870650  10.0721010 150.6959830  21.2818760  10.8766580
 155.2677040  26.6382470   8.9648320 155.2821580  25.7063430   8.7467230
 154.5602140  26.7242230   9.6038090 161.4788250  23.2789810   8.3116900
 160.7536440  23.8718590   8.1146290 162.0063710  23.2713350   7.5130270
 154.7010940  28.2800040   6.0588820 155.3453160  28.4859420   6.7362240
 155.0640380  27.5188440   5.6059670 155.9743020  26.2832390   4.7766270
 156.6165250  25.5825550   4.8898440 156.4992370  27.0630830   4.5963160
 157.7480640  27.0827290   7.9802330 158.0836880  27.6693980   8.6580250
 156.8280980  26.9520000   8.2100120 145.2984040  14.8722470   8.7625740
 144.5842560  15.0719390   9.3678350 145.7179080  14.0962040   9.1340540
 145.5856630  28.8602730   9.7492270 145.6947750  27.9197470   9.6087660
 144.9337190  29.1257480   9.1006000 153.5769220  27.1318620  11.1490390
 153.2566090  26.4127860  11.6936080 152.9027580  27.8073690  11.2226450
 156.7922820  17.3644780   6.5127190 157.1603640  16.5439990   6.8406760
 155.9321020  17.4246670   6.9282840 153.7524810  20.0184370   6.7365160
 154.2510060  20.4930190   7.4017010 153.8947760  19.0947890   6.9435190
 160.9591670  16.2352330   7.5793550 160.4565270  16.9757730   7.9187360
 161.7748330  16.6236330   7.2630340 161.2539260  28.6494360   2.7009170
 161.3786680  29.4725530   3.1732980 162.1204820  28.4385090   2.3533320
 148.7256790  30.7425570   2.3726300 149.4619270  30.1941030   2.6434870
 149.1097710  31.6081580   2.2332290 156.5679700  26.0351510  11.5087290
 155.9617860  26.0583110  10.7683040 156.2633810  25.3034550  12.0454540
 157.9980070  29.7631800  10.1196700 158.9501820  29.6789820  10.0696940
 157.8508290  30.4273510  10.7930490 145.4512880  22.4145100  10.5047930
 145.9551900  21.8352380  11.0764160 144.7120300  22.6985330  11.0424300
 152.5050820  23.8216090  10.0383450 151.7396490  24.3901090   9.9538120
 152.6866780  23.5292300   9.1451680 159.6474170  25.5521420  10.5958470
 160.3883640  25.8897180  10.0925930 158.8846850  25.7213480  10.0428240
 147.4835960  20.5574690  11.3998000 147.5241300  20.2588560  12.3083230
 148.3381460  20.9582300  11.2405520 149.4241770  19.1366790   9.3672490
 148.8938230  18.6457740   8.7395830 150.0929840  19.5650990   8.8330420
 158.3219830  23.6036250   9.1313680 158.7360850  23.7581330   9.9804100
 157.3870830  23.7291470   9.2939460 158.7942000  20.9432410  11.1352830
 159.3762770  20.1884730  11.0473310 158.9703770  21.4739850  10.3584310
 149.9114070  16.1029160   9.4469780 149.8170940  15.4849910   8.7220650
 149.3311460  16.8295450   9.2199690 152.6775510  14.6602400   6.4797170
 152.2292810  14.6826660   5.6342720 152.0440710  14.2621420   7.0767470
 153.0835060  23.5556730   7.1009610 153.5023170  24.3989460   6.9285850
 152.1643690  23.6928770   6.8716390 155.4198960  21.2872910   8.4847450
 155.5395170  20.6914050   9.2242290 156.2792960  21.3242600   8.0648750
 157.7586860  21.8410100   7.0609960 157.2322080  22.3652720   6.4575100
 158.1018200  22.4737490   7.6919690 150.9342480  29.8609740   8.2167340
 150.3963570  30.5855800   7.8976040 151.1876440  29.3840080   7.4264680
 152.1867730  17.8294260   9.7423270 152.7767420  17.5210110  10.4301090
 151.3687970  17.3574010   9.8983170 157.0061160  17.4460070   9.9756290
 156.3176680  16.7841610   9.9106280 157.7267180  16.9998340  10.4204750
 153.7904690  31.0960950   8.4753990 153.7163390  31.9996090   8.7826360
 152.8883530  30.7772850   8.4476060 145.1931980  28.4235540   1.7787610
 145.5234990  27.5556600   1.5466250 145.6222980  28.6294060   2.6092570
 145.6822190  29.2906130   4.5169240 145.2453180  29.4706930   5.3493390
 146.2499870  30.0480750   4.3750960 161.3184370  28.7923130   8.8046550
 160.7186360  28.8515690   8.0610470 161.4478270  27.8528110   8.9343400
 160.0036010  25.5175110   6.9022710 159.1895850  25.9472270   7.1648500
 160.4110210  26.1293520   6.2891760 146.5522550  22.1878930   5.4161460
 146.9195590  22.1006330   6.2957480 145.9833370  21.4245480   5.3168320
 161.3526410  20.6563310   8.4291930 161.1212500  20.4276060   7.5289880
 161.6130960  21.5762860   8.3836820 146.1038550  19.0988020   9.3219880
 145.2094600  19.0654780   9.6613590 146.6436100  19.2974810  10.0871130
 159.7914480  15.8819740  11.2071630 160.6684660  15.8903140  11.5905630
 159.8035320  15.1450580  10.5963980 161.2377750  19.7349280   2.0959650
 161.7615230  19.2411930   1.4649820 161.8237170  19.8699640   2.8407220
 161.4167470  19.8189150   5.6179200 160.4670180  19.7852690   5.7324190
 161.5980480  20.7289260   5.3828970 146.6078260  13.3736350   3.6703100
 147.2554450  12.8233730   3.2298260 147.0280100  13.6279500   4.4918910
 160.5030600  13.5677710   7.0272740 161.1402820  14.1811850   7.3931930
 160.6505490  13.6038370   6.0821970 146.3610260  13.5292020   6.4128420
 146.0125080  13.9855840   7.1786600 146.0297960  12.6349150   6.4950850
 147.9674630  26.7011620  10.5781610 147.9244260  26.3304530  11.4596070
 148.0985640  27.6389190  10.7183430 151.6680660  28.2571210   6.1791330
 151.4272020  28.5245770   5.2921850 152.6083300  28.4276940   6.2342190
 153.8735080  14.7203900   9.9347840 153.8123970  15.3125730  10.6843250
 154.8135460  14.6129860   9.7898100 156.5109640  14.3773960   9.5740130
 157.1250050  14.6953250   8.9121210 157.0559200  13.8922550  10.1935990
 162.9284820  30.2765590   6.9801970 162.4343100  30.6734460   6.2629100
 162.3198110  29.6514800   7.3739250 147.0330900  13.0568220   9.6879190
 147.5813890  12.8756270   8.9245300 147.0986210  12.2662330  10.2235500
 147.8062660  29.6473870   7.6979390 147.2122980  29.5158570   8.4369430
 147.7986500  28.8112010   7.2321490 157.2517680  12.9406100   5.9009420
 156.3777520  13.2741210   5.6982350 157.1428430  12.4679280   6.7261290
 158.1589660  15.1476970   7.2851140 157.8303020  14.3328730   6.9052870
 159.1071960  15.1046780   7.1616830 160.6124270  30.9189010   4.2588710
 160.1527240  31.6704820   3.8846730 159.9836730  30.1995480   4.2003510
 147.4374890  27.0132250   6.6487430 146.7108950  26.3937540   6.5813380
 147.4984040  27.4072860   5.7785510 151.0419990  29.2277250   3.4336840
 151.5585010  28.6164610   2.9085100 151.6917370  29.7306030   3.9247850
 153.7815490  30.1185740   4.2605820 154.0693300  29.8640040   3.3838830
 154.2938710  29.5663100   4.8511390 154.9992500  13.8575940   4.8402330
 154.2164290  14.3321440   5.1199090 154.7055430  12.9530770   4.7315510
 159.5513570  14.5599040   2.8851420 159.9921660  14.5044140   2.0373020
 159.2821160  15.4757050   2.9561600 153.8487850  31.0401840  11.6274020
 154.7755160  30.8046110  11.6709980 153.8338280  31.8673840  11.1460050
 151.0351460  13.7046590  11.3915900 150.7535730  14.2080190  10.6276720
 151.4171160  12.9068340  11.0258030 157.6366920  13.1200170  11.9696370
 157.5232370  13.4394780  12.8647890 158.4536660  13.5212680  11.6733650
 160.4165410  30.2671700  11.4515060 161.2090730  29.7720930  11.2441020
 160.7098560  30.9461840  12.0590670 156.5425070   2.3649150  57.4305070
 156.4619120   1.4503760  57.1596780 156.1289490   2.8616220  56.7244780
 154.6743110   4.1428170  59.3114340 153.8985210   3.6628610  59.6012910
 155.3256040   3.4633820  59.1370500 158.6950540   8.5488360  58.0913470
 158.2332070   7.7775600  58.4200640 159.5076090   8.5754430  58.5965920
 145.0633900   2.0155520  59.8572190 145.6350010   1.2477720  59.8575830
 145.0635440   2.3144280  58.9478800 154.9213850  10.8346370  57.7117460
 154.3025290  11.2903870  57.1411900 155.7765630  10.9897830  57.3107160
 154.1152100   6.8185360  59.3184500 154.0460380   5.8775300  59.1573630
 154.8771960   6.9086770  59.8907070 155.7877200   5.7185610  55.1049370
 155.1694470   6.1835060  54.5412090 156.3000450   6.4113090  55.5218880
 145.1560400   6.4042140  52.4789000 144.7788380   6.8929240  51.7473900
 145.4133470   7.0767420  53.1095530 158.3164390  10.5225820  60.2281970
 158.3291550  10.1188110  59.3604230 157.7639610  11.2973110  60.1243400
 159.6109810   7.2442040  55.3172140 159.5006140   6.3016370  55.4421560
 159.6078060   7.6057680  56.2034900 155.1530090   2.8707360  54.6734630
 154.2259370   2.8044740  54.9023100 155.3054910   3.8087490  54.5589870
 159.1827380   4.4327660  55.1769880 158.5639800   4.0947210  54.5296180
 159.1651830   3.7887420  55.8849070 150.7586730   3.3972100  57.4554360
 150.3543730   2.6849350  56.9600260 150.8449850   3.0525340  58.3442400
 151.2268430   7.0839660  59.6193570 150.9296720   6.4785130  58.9401350
 152.1768250   7.1216970  59.5082930 157.3592080   3.6714470  52.1842630
 157.7985360   2.8336900  52.0380450 158.0720500   4.3043870  52.2706770
 155.4687460   8.6110540  56.1523870 155.9083370   9.3534870  55.7379260
 155.4074350   8.8537110  57.0762830 147.4591360   2.2917080  54.9561010
 147.3388960   3.0179170  54.3442280 147.1492250   1.5219990  54.4788920
 146.3424360   7.1632410  57.1735830 145.9352440   7.3047000  56.3189430
 147.2337370   6.8792570  56.9707040 158.1357640  11.5979660  53.5086880
 157.9758780  11.3082600  54.4068710 157.9704350  10.8219790  52.9732110
 150.6146020  11.3778190  55.2858500 150.4388500  10.4613730  55.0726300
 149.7601760  11.7365480  55.5256300 157.8383770   9.1067220  52.0684880
 157.1448930   9.1044510  51.4087160 158.5806630   8.6826540  51.6379050
 157.4033700  10.7329930  56.1433370 157.8590650   9.9519310  56.4571990
 157.7426220  11.4436750  56.6874550 151.6506050   1.9785800  51.5853190
 151.0822950   1.5304050  50.9589100 152.3595050   2.3378580  51.0518340
 149.1953530   5.9743990  53.8579600 148.4215790   5.4341610  53.6978320
 149.9248160   5.4550600  53.5197360 159.9541510   4.9709350  59.6505990
 160.6740630   5.4664640  59.2602100 159.7523330   4.2927240  59.0059860
 149.2390930   5.6424370  57.4958410 149.7569600   4.8392630  57.4415300
 148.7874950   5.5803510  58.3375240 154.1260430   6.9090650  52.7685710
 154.4676130   7.6532880  52.2729030 153.2973140   7.2221770  53.1310540
 160.4014110   2.0478800  51.5577400 160.3177830   2.4793020  50.7073840
 161.1208300   2.5077150  51.9904220 161.4301360   8.9021060  54.2859530
 160.7877520   8.2476680  54.5603250 161.0432020   9.3076150  53.5100200
 157.0087840   6.2306490  58.1331220 157.3611660   5.6334620  57.4732590
 156.1250170   5.9050720  58.3039470 153.0951120   6.9904180  55.5401630
 153.7822250   7.5373390  55.9209220 152.3083540   7.5344910  55.5751240
 145.2343520   2.6077000  51.0318710 146.1038370   2.8901800  51.3154630
 144.7433840   3.4212870  50.9167520 152.3978330   3.9950210  55.1526990
 152.8541110   4.8055460  55.3787180 152.0466540   3.6773350  55.9845480
 159.8198740   7.7937520  50.8235880 159.5936320   7.0767960  51.4160520
 159.4294940   7.5449960  49.9857630 145.6014770  11.8204380  51.5980340
 145.9612410  12.4193720  50.9437610 145.4607110  12.3664270  52.3715370
 159.4014990   5.7109460  52.4850040 159.1136690   6.1722150  53.2727920
 160.1967160   5.2507230  52.7534260 151.6183390   9.2035580  52.4154010
 151.6093490   9.9365270  51.7998520 150.6981750   8.9567160  52.5080970
 147.2190030   4.4250470  53.1600770 146.6117980   5.1649370  53.1696070
 147.6939380   4.5149830  52.3338970 154.6042990   9.2663820  51.0779200
 154.7054970   9.0627810  50.1481180 153.7044730   9.0122100  51.2826980
 153.2461100  11.7850140  55.7726870 153.5002600  11.7471530  54.8506240
 152.2973580  11.6583470  55.7655120 159.2513680   2.7042020  57.3485380
 158.3103820   2.7192250  57.5233070 159.5657750   1.9177980  57.7945680
 149.2295320   4.3861620  50.9089340 149.9958590   4.2742980  51.4714770
 149.3070010   3.6899590  50.2566110 161.2539260   9.8750870  59.0239640
 161.3786680  10.6982040  59.4963450 162.1204820   9.6641600  58.6763790
 148.7256790  11.9682080  58.6956770 149.4619270  11.4197540  58.9665340
 149.1097710  12.8338090  58.5562760 145.6102270   8.0355650  54.5698280
 144.6842050   8.2776790  54.5603690 146.0758700   8.8629910  54.4483030
 151.8359100  11.1412390  50.5182340 152.6287710  11.4301220  50.0664130
 151.3163450  10.7104560  49.8394820 160.8889270  10.3682520  51.9419080
 160.6030780   9.9547660  51.1273260 160.6908820  11.2970230  51.8219600
 152.3536500   6.3615800  50.3824690 152.2487140   5.7468150  51.1086070
 152.1860720   5.8381690  49.5987700 155.5939230   5.4235830  50.9866680
 155.0449330   5.8705130  51.6309420 156.2158490   4.9185080  51.5104350
 151.2614350   4.3826750  52.8831980 151.6830770   4.2166620  53.7263370
 151.3865190   3.5726980  52.3887120 153.7741990   3.4064360  50.1309080
 154.2947650   2.6913380  49.7650230 154.4210390   4.0450230  50.4309590
 154.3390020  11.4875970  52.4210820 155.2340810  11.8260940  52.4429580
 154.3707650  10.7655380  51.7935100 147.9786180   6.8603020  50.6497820
 148.4161050   7.4032690  51.3055400 148.4633910   6.0349970  50.6594160
 145.1931980   9.6492050  58.1018080 145.5234990   8.7813110  57.8696720
 145.6222980   9.8550570  58.9323040 149.7893900   7.9801060  55.7620050
 149.4889440   7.8566030  56.6623960 149.6831390   7.1209650  55.3535780
 162.5585820   7.7597460  50.4646730 161.7278780   7.8274110  50.9353960
 162.7357650   8.6501580  50.1613590 162.0142280   4.5044940  52.9680930
 162.7761190   5.0741590  53.0740620 162.0296650   3.9372140  53.7389240
 145.5146620   3.0282870  57.1988590 144.8595460   2.7594510  56.5548290
 146.3524570   2.9187350  56.7490570 163.0202250   5.3595040  57.8122860
 163.3911080   4.5762360  57.4058830 163.6604180   6.0484140  57.6340160
 162.0661450   4.7979310  50.1253450 162.3410290   5.7058190  49.9972670
 161.8772190   4.7341840  51.0615440 161.9626790   2.7348300  55.1182880
 161.5870390   1.9676230  54.6864170 161.2329910   3.1171000  55.6057810
 160.0612060  11.4950220  56.7521450 160.6571130  11.1734790  56.0755870
 160.3190210  11.0222040  57.5434720 151.0419990  10.4533760  59.7567310
 151.5585010   9.8421120  59.2315570 151.6917370  10.9562540  60.2478320
 145.7204890  11.5563150  56.1814660 145.5526930  10.9233830  56.8796550
 144.8539400  11.7622550  55.8308850 147.3267590  10.2496380  53.6264800
 146.8015210  10.6304410  52.9226760 147.2512170  10.8747150  54.3474510
 162.0832910  11.8083920  54.9478740 162.2585100  11.1221660  54.3039660
 161.3854480  12.3330970  54.5555410 149.9260560  12.1978760  52.5014050
 150.6579380  11.9138040  51.9537940 150.1854230  11.9592040  53.3913430
 149.0875350   8.3143490  52.5060380 148.4584230   8.7828590  53.0546210
 149.2023180   7.4692710  52.9406570 156.5425070   2.3649150  38.6561580
 156.4619120   1.4503760  38.3853290 156.1289490   2.8616220  37.9501290
 154.6743110   4.1428170  40.5370850 153.8985210   3.6628610  40.8269420
 155.3256040   3.4633820  40.3627010 148.6908940   4.4547980  41.4146610
 147.8593820   4.1996690  41.8143120 149.2989920   4.5258750  42.1504530
 158.6950540   8.5488360  39.3169980 158.2332070   7.7775600  39.6457150
 159.5076090   8.5754430  39.8222430 145.0633900   2.0155520  41.0828700
 145.6350010   1.2477720  41.0832340 145.0635440   2.3144280  40.1735310
 154.9213850  10.8346370  38.9373970 154.3025290  11.2903870  38.3668410
 155.7765630  10.9897830  38.5363670 154.1152100   6.8185360  40.5441010
 154.0460380   5.8775300  40.3830140 154.8771960   6.9086770  41.1163580
 155.7877200   5.7185610  36.3305880 155.1694470   6.1835060  35.7668600
 156.3000450   6.4113090  36.7475390 150.6508960   5.2461480  43.0089480
 150.3178340   5.8730400  43.6510550 150.8275640   5.7723360  42.2291150
 149.8628060   7.2142280  44.8238660 150.4802060   7.8893360  44.5423110
 149.0021180   7.6230260  44.7326160 145.1560400   6.4042140  33.7045510
 144.7788380   6.8929240  32.9730410 145.4133470   7.0767420  34.3352040
 160.7805650   8.6781690  42.7393300 160.0969170   9.3480800  42.7309970
 161.3199940   8.8762340  41.9738160 158.3164390  10.5225820  41.4538480
 158.3291550  10.1188110  40.5860740 157.7639610  11.2973110  41.3499910
 159.6109810   7.2442040  36.5428650 159.5006140   6.3016370  36.6678070
 159.6078060   7.6057680  37.4291410 157.7149830   5.4255660  42.7821090
 158.1318620   5.2115770  41.9474550 158.4389650   5.6828450  43.3529710
 155.1530090   2.8707360  35.8991140 154.2259370   2.8044740  36.1279610
 155.3054910   3.8087490  35.7846380 161.6611930   3.8242880  42.8737330
 160.8330560   3.8935970  42.3987460 162.2562410   4.4097190  42.4053160
 159.1827380   4.4327660  36.4026390 158.5639800   4.0947210  35.7552690
 159.1651830   3.7887420  37.1105580 150.7586730   3.3972100  38.6810870
 150.3543730   2.6849350  38.1856770 150.8449850   3.0525340  39.5698910
 151.2268430   7.0839660  40.8450080 150.9296720   6.4785130  40.1657860
 152.1768250   7.1216970  40.7339440 159.3154040  10.6571530  44.5073180
 158.8384600  11.4643720  44.3145790 158.6315830  10.0049860  44.6599390
 150.3186860   6.8221350  47.4957880 149.4215390   7.0461320  47.7431280
 150.3439730   6.9456290  46.5469280 157.3592080   3.6714470  33.4099140
 157.7985360   2.8336900  33.2636960 158.0720500   4.3043870  33.4963280
 149.1458080   3.6934670  46.0715250 149.0065850   4.5657470  46.4402650
 148.2639440   3.3507480  45.9263190 155.4687460   8.6110540  37.3780380
 155.9083370   9.3534870  36.9635770 155.4074350   8.8537110  38.3019340
 150.9438430   9.6356370  48.2800400 150.9153860  10.0399320  47.4128830
 150.7803400   8.7066730  48.1172000 147.4591360   2.2917080  36.1817520
 147.3388960   3.0179170  35.5698790 147.1492250   1.5219990  35.7045430
 162.8953250  10.4183470  49.5764570 163.3712970  10.8966360  50.2553650
 163.5160410  10.3500960  48.8510070 145.0976730   5.4632220  41.9886160
 145.1757150   5.5980990  41.0441880 145.7118410   4.7548110  42.1814280
 146.3424360   7.1632410  38.3992340 145.9352440   7.3047000  37.5445940
 147.2337370   6.8792570  38.1963550 162.2986500   7.6096320  46.7364580
 162.4249560   7.3708200  45.8181760 162.3407880   6.7780860  47.2086660
 156.1603240  11.3124320  45.3059390 156.6747910  11.2232330  46.1081820
 155.3172320  11.6584020  45.5987300 158.1357640  11.5979660  34.7343390
 157.9758780  11.3082600  35.6325220 157.9704350  10.8219790  34.1988620
 150.6146020  11.3778190  36.5115010 150.4388500  10.4613730  36.2982810
 149.7601760  11.7365480  36.7512810 157.8383770   9.1067220  33.2941390
 157.1448930   9.1044510  32.6343670 158.5806630   8.6826540  32.8635560
 157.4033700  10.7329930  37.3689880 157.8590650   9.9519310  37.6828500
 157.7426220  11.4436750  37.9131060 145.1536250   6.5046390  44.5280620
 145.3167290   6.0351750  43.7099990 145.6188700   5.9969950  45.1929460
 151.6506050   1.9785800  32.8109700 151.0822950   1.5304050  32.1845610
 152.3595050   2.3378580  32.2774850 146.7275230   5.8797820  46.6876430
 146.3430020   5.2391490  47.2859390 147.0387420   6.5833940  47.2571160
 152.8772370   2.7274360  42.1685050 153.2442500   2.2532930  42.9146390
 152.6877430   3.6015930  42.5093390 150.6671740   1.7683000  44.4869260
 150.3628810   2.6474980  44.7119620 151.6218200   1.8282790  44.5226700
 149.1953530   5.9743990  35.0836110 148.4215790   5.4341610  34.9234830
 149.9248160   5.4550600  34.7453870 159.9541510   4.9709350  40.8762500
 160.6740630   5.4664640  40.4858610 159.7523330   4.2927240  40.2316370
 155.3360310   5.0418410  46.7631500 155.2697620   4.1214080  46.5089090
 154.7065450   5.1393850  47.4776140 149.2390930   5.6424370  38.7214920
 149.7569600   4.8392630  38.6671810 148.7874950   5.5803510  39.5631750
 154.1260430   6.9090650  33.9942220 154.4676130   7.6532880  33.4985540
 153.2973140   7.2221770  34.3567050 146.7235470   2.6085740  45.6340620
 146.3650410   3.2739590  46.2213960 146.4290030   1.7769290  46.0053240
 149.9248590   3.0669980  48.5180170 149.6248730   3.2127160  47.6207990
 150.6959830   2.5075270  48.4253560 155.2677040   7.8638980  46.5135300
 155.2821580   6.9319940  46.2954210 154.5602140   7.9498740  47.1525070
 160.4014110   2.0478800  32.7833910 160.3177830   2.4793020  31.9330350
 161.1208300   2.5077150  33.2160730 161.4788250   4.5046320  45.8603880
 160.7536440   5.0975100  45.6633270 162.0063710   4.4969860  45.0617250
 161.4301360   8.9021060  35.5116040 160.7877520   8.2476680  35.7859760
 161.0432020   9.3076150  34.7356710 157.0087840   6.2306490  39.3587730
 157.3611660   5.6334620  38.6989100 156.1250170   5.9050720  39.5295980
 153.0951120   6.9904180  36.7658140 153.7822250   7.5373390  37.1465730
 152.3083540   7.5344910  36.8007750 145.2343520   2.6077000  32.2575220
 146.1038370   2.8901800  32.5411140 144.7433840   3.4212870  32.1424030
 152.3978330   3.9950210  36.3783500 152.8541110   4.8055460  36.6043690
 152.0466540   3.6773350  37.2101990 154.7010940   9.5056550  43.6075800
 155.3453160   9.7115930  44.2849220 155.0640380   8.7444950  43.1546650
 155.9743020   7.5088900  42.3253250 156.6165250   6.8082060  42.4385420
 156.4992370   8.2887340  42.1450140 159.8198740   7.7937520  32.0492390
 159.5936320   7.0767960  32.6417030 159.4294940   7.5449960  31.2114140
 157.7480640   8.3083800  45.5289310 158.0836880   8.8950490  46.2067230
 156.8280980   8.1776510  45.7587100 145.6014770  11.8204380  32.8236850
 145.9612410  12.4193720  32.1694120 145.4607110  12.3664270  33.5971880
 159.4014990   5.7109460  33.7106550 159.1136690   6.1722150  34.4984430
 160.1967160   5.2507230  33.9790770 145.5856630  10.0859240  47.2979250
 145.6947750   9.1453980  47.1574640 144.9337190  10.3513990  46.6492980
 153.5769220   8.3575130  48.6977370 153.2566090   7.6384370  49.2423060
 152.9027580   9.0330200  48.7713430 151.6183390   9.2035580  33.6410520
 151.6093490   9.9365270  33.0255030 150.6981750   8.9567160  33.7337480
 147.2190030   4.4250470  34.3857280 146.6117980   5.1649370  34.3952580
 147.6939380   4.5149830  33.5595480 154.6042990   9.2663820  32.3035710
 154.7054970   9.0627810  31.3737690 153.7044730   9.0122100  32.5083490
 153.2461100  11.7850140  36.9983380 153.5002600  11.7471530  36.0762750
 152.2973580  11.6583470  36.9911630 159.2513680   2.7042020  38.5741890
 158.3103820   2.7192250  38.7489580 159.5657750   1.9177980  39.0202190
 149.2295320   4.3861620  32.1345850 149.9958590   4.2742980  32.6971280
 149.3070010   3.6899590  31.4822620 161.2539260   9.8750870  40.2496150
 161.3786680  10.6982040  40.7219960 162.1204820   9.6641600  39.9020300
 148.7256790  11.9682080  39.9213280 149.4619270  11.4197540  40.1921850
 149.1097710  12.8338090  39.7819270 145.6102270   8.0355650  35.7954790
 144.6842050   8.2776790  35.7860200 146.0758700   8.8629910  35.6739540
 147.7315070  11.1528150  49.1098860 148.5327800  11.4740200  49.5234260
 147.2166890  10.7923730  49.8318770 151.8359100  11.1412390  31.7438850
 152.6287710  11.4301220  31.2920640 151.3163450  10.7104560  31.0651330
 156.5679700   7.2608020  49.0574270 155.9617860   7.2839620  48.3170020
 156.2633810   6.5291060  49.5941520 157.9980070  10.9888310  47.6683680
 158.9501820  10.9046330  47.6183920 157.8508290  11.6530020  48.3417470
 160.8889270  10.3682520  33.1675590 160.6030780   9.9547660  32.3529770
 160.6908820  11.2970230  33.0476110 145.4512880   3.6401610  48.0534910
 145.9551900   3.0608890  48.6251140 144.7120300   3.9241840  48.5911280
 152.3536500   6.3615800  31.6081200 152.2487140   5.7468150  32.3342580
 152.1860720   5.8381690  30.8244210 152.5050820   5.0472600  47.5870430
 151.7396490   5.6157600  47.5025100 152.6866780   4.7548810  46.6938660
 155.5939230   5.4235830  32.2123190 155.0449330   5.8705130  32.8565930
 156.2158490   4.9185080  32.7360860 159.6474170   6.7777930  48.1445450
 160.3883640   7.1153690  47.6412910 158.8846850   6.9469990  47.5915220
 147.4835960   1.7831200  48.9484980 147.5241300   1.4845070  49.8570210
 148.3381460   2.1838810  48.7892500 151.2614350   4.3826750  34.1088490
 151.6830770   4.2166620  34.9519880 151.3865190   3.5726980  33.6143630
 153.7741990   3.4064360  31.3565590 154.2947650   2.6913380  30.9906740
 154.4210390   4.0450230  31.6566100 158.3219830   4.8292760  46.6800660
 158.7360850   4.9837840  47.5291080 157.3870830   4.9547980  46.8426440
 158.7942000   2.1688920  48.6839810 159.3762770   1.4141240  48.5960290
 158.9703770   2.6996360  47.9071290 153.0835060   4.7813240  44.6496590
 153.5023170   5.6245970  44.4772830 152.1643690   4.9185280  44.4203370
 155.4198960   2.5129420  46.0334430 155.5395170   1.9170560  46.7729270
 156.2792960   2.5499110  45.6135730 157.7586860   3.0666610  44.6096940
 157.2322080   3.5909230  44.0062080 158.1018200   3.6994000  45.2406670
 150.9342480  11.0866250  45.7654320 150.3963570  11.8112310  45.4463020
 151.1876440  10.6096590  44.9751660 153.7904690  12.3217460  46.0240970
 153.7163390  13.2252600  46.3313340 152.8883530  12.0029360  45.9963040
 154.3390020  11.4875970  33.6467330 155.2340810  11.8260940  33.6686090
 154.3707650  10.7655380  33.0191610 147.9786180   6.8603020  31.8754330
 148.4161050   7.4032690  32.5311910 148.4633910   6.0349970  31.8850670
 145.1931980   9.6492050  39.3274590 145.5234990   8.7813110  39.0953230
 145.6222980   9.8550570  40.1579550 149.7893900   7.9801060  36.9876560
 149.4889440   7.8566030  37.8880470 149.6831390   7.1209650  36.5792290
 145.6822190  10.5162640  42.0656220 145.2453180  10.6963440  42.8980370
 146.2499870  11.2737260  41.9237940 161.3184370  10.0179640  46.3533530
 160.7186360  10.0772200  45.6097450 161.4478270   9.0784620  46.4830380
 162.5585820   7.7597460  31.6903240 161.7278780   7.8274110  32.1610470
 162.7357650   8.6501580  31.3870100 162.0142280   4.5044940  34.1937440
 162.7761190   5.0741590  34.2997130 162.0296650   3.9372140  34.9645750
 145.5146620   3.0282870  38.4245100 144.8595460   2.7594510  37.7804800
 146.3524570   2.9187350  37.9747080 163.0202250   5.3595040  39.0379370
 163.3911080   4.5762360  38.6315340 163.6604180   6.0484140  38.8596670
 160.0036010   6.7431620  44.4509690 159.1895850   7.1728780  44.7135480
 160.4110210   7.3550030  43.8378740 162.0661450   4.7979310  31.3509960
 162.3410290   5.7058190  31.2229180 161.8772190   4.7341840  32.2871950
 161.9626790   2.7348300  36.3439390 161.5870390   1.9676230  35.9120680
 161.2329910   3.1171000  36.8314320 146.5522550   3.4135440  42.9648440
 146.9195590   3.3262840  43.8444460 145.9833370   2.6501990  42.8655300
 161.3526410   1.8819820  45.9778910 161.1212500   1.6532570  45.0776860
 161.6130960   2.8019370  45.9323800 160.0612060  11.4950220  37.9777960
 160.6571130  11.1734790  37.3012380 160.3190210  11.0222040  38.7691230
 147.9674630   7.9268130  48.1268590 147.9244260   7.5561040  49.0083050
 148.0985640   8.8645700  48.2670410 151.6680660   9.4827720  43.7278310
 151.4272020   9.7502280  42.8408830 152.6083300   9.6533450  43.7829170
 162.9284820  11.5022100  44.5288950 162.4343100  11.8990970  43.8116080
 162.3198110  10.8771310  44.9226230 147.8062660  10.8730380  45.2466370
 147.2122980  10.7415080  45.9856410 147.7986500  10.0368520  44.7808470
 160.6124270  12.1445520  41.8075690 160.1527240  12.8961330  41.4333710
 159.9836730  11.4251990  41.7490490 147.4374890   8.2388760  44.1974410
 146.7108950   7.6194050  44.1300360 147.4984040   8.6329370  43.3272490
 151.0419990  10.4533760  40.9823820 151.5585010   9.8421120  40.4572080
 151.6917370  10.9562540  41.4734830 153.7815490  11.3442250  41.8092800
 154.0693300  11.0896550  40.9325810 154.2938710  10.7919610  42.3998370
 145.7204890  11.5563150  37.4071170 145.5526930  10.9233830  38.1053060
 144.8539400  11.7622550  37.0565360 147.3267590  10.2496380  34.8521310
 146.8015210  10.6304410  34.1483270 147.2512170  10.8747150  35.5731020
 153.8487850  12.2658350  49.1761000 154.7755160  12.0302620  49.2196960
 153.8338280  13.0930350  48.6947030 162.0832910  11.8083920  36.1735250
 162.2585100  11.1221660  35.5296170 161.3854480  12.3330970  35.7811920
 149.9260560  12.1978760  33.7270560 150.6579380  11.9138040  33.1794450
 150.1854230  11.9592040  34.6169940 149.0875350   8.3143490  33.7316890
 148.4584230   8.7828590  34.2802720 149.2023180   7.4692710  34.1663080
 160.4165410  11.4928210  49.0002040 161.2090730  10.9977440  48.7928000
 160.7098560  12.1718350  49.6077650 156.5425070   2.3649150  19.8818090
 156.4619120   1.4503760  19.6109800 156.1289490   2.8616220  19.1757800
 154.6743110   4.1428170  21.7627360 153.8985210   3.6628610  22.0525930
 155.3256040   3.4633820  21.5883520 148.6908940   4.4547980  22.6403120
 147.8593820   4.1996690  23.0399630 149.2989920   4.5258750  23.3761040
 158.6950540   8.5488360  20.5426490 158.2332070   7.7775600  20.8713660
 159.5076090   8.5754430  21.0478940 148.6710200   8.4888070  22.8361140
 148.9738240   7.5985810  22.6571360 149.4153790   9.0458290  22.6083390
 145.0633900   2.0155520  22.3085210 145.6350010   1.2477720  22.3088850
 145.0635440   2.3144280  21.3991820 154.9213850  10.8346370  20.1630480
 154.3025290  11.2903870  19.5924920 155.7765630  10.9897830  19.7620180
 154.1152100   6.8185360  21.7697520 154.0460380   5.8775300  21.6086650
 154.8771960   6.9086770  22.3420090 155.7877200   5.7185610  17.5562390
 155.1694470   6.1835060  16.9925110 156.3000450   6.4113090  17.9731900
 150.6508960   5.2461480  24.2345990 150.3178340   5.8730400  24.8767060
 150.8275640   5.7723360  23.4547660 149.8628060   7.2142280  26.0495170
 150.4802060   7.8893360  25.7679620 149.0021180   7.6230260  25.9582670
 145.1560400   6.4042140  14.9302020 144.7788380   6.8929240  14.1986920
 145.4133470   7.0767420  15.5608550 160.7805650   8.6781690  23.9649810
 160.0969170   9.3480800  23.9566480 161.3199940   8.8762340  23.1994670
 158.3164390  10.5225820  22.6794990 158.3291550  10.1188110  21.8117250
 157.7639610  11.2973110  22.5756420 159.6109810   7.2442040  17.7685160
 159.5006140   6.3016370  17.8934580 159.6078060   7.6057680  18.6547920
 157.7149830   5.4255660  24.0077600 158.1318620   5.2115770  23.1731060
 158.4389650   5.6828450  24.5786220 155.1530090   2.8707360  17.1247650
 154.2259370   2.8044740  17.3536120 155.3054910   3.8087490  17.0102890
 161.6611930   3.8242880  24.0993840 160.8330560   3.8935970  23.6243970
 162.2562410   4.4097190  23.6309670 159.1827380   4.4327660  17.6282900
 158.5639800   4.0947210  16.9809200 159.1651830   3.7887420  18.3362090
 150.7586730   3.3972100  19.9067380 150.3543730   2.6849350  19.4113280
 150.8449850   3.0525340  20.7955420 151.2268430   7.0839660  22.0706590
 150.9296720   6.4785130  21.3914370 152.1768250   7.1216970  21.9595950
 159.3154040  10.6571530  25.7329690 158.8384600  11.4643720  25.5402300
 158.6315830  10.0049860  25.8855900 150.3186860   6.8221350  28.7214390
 149.4215390   7.0461320  28.9687790 150.3439730   6.9456290  27.7725790
 157.3592080   3.6714470  14.6355650 157.7985360   2.8336900  14.4893470
 158.0720500   4.3043870  14.7219790 149.1458080   3.6934670  27.2971760
 149.0065850   4.5657470  27.6659160 148.2639440   3.3507480  27.1519700
 155.4687460   8.6110540  18.6036890 155.9083370   9.3534870  18.1892280
 155.4074350   8.8537110  19.5275850 150.9438430   9.6356370  29.5056910
 150.9153860  10.0399320  28.6385340 150.7803400   8.7066730  29.3428510
 147.4591360   2.2917080  17.4074030 147.3388960   3.0179170  16.7955300
 147.1492250   1.5219990  16.9301940 162.8953250  10.4183470  30.8021080
 163.3712970  10.8966360  31.4810160 163.5160410  10.3500960  30.0766580
 145.0976730   5.4632220  23.2142670 145.1757150   5.5980990  22.2698390
 145.7118410   4.7548110  23.4070790 146.3424360   7.1632410  19.6248850
 145.9352440   7.3047000  18.7702450 147.2337370   6.8792570  19.4220060
 162.2986500   7.6096320  27.9621090 162.4249560   7.3708200  27.0438270
 162.3407880   6.7780860  28.4343170 156.1603240  11.3124320  26.5315900
 156.6747910  11.2232330  27.3338330 155.3172320  11.6584020  26.8243810
 158.1357640  11.5979660  15.9599900 157.9758780  11.3082600  16.8581730
 157.9704350  10.8219790  15.4245130 150.6146020  11.3778190  17.7371520
 150.4388500  10.4613730  17.5239320 149.7601760  11.7365480  17.9769320
 157.8383770   9.1067220  14.5197900 157.1448930   9.1044510  13.8600180
 158.5806630   8.6826540  14.0892070 157.4033700  10.7329930  18.5946390
 157.8590650   9.9519310  18.9085010 157.7426220  11.4436750  19.1387570
 145.1536250   6.5046390  25.7537130 145.3167290   6.0351750  24.9356500
 145.6188700   5.9969950  26.4185970 151.6506050   1.9785800  14.0366210
 151.0822950   1.5304050  13.4102120 152.3595050   2.3378580  13.5031360
 146.7275230   5.8797820  27.9132940 146.3430020   5.2391490  28.5115900
 147.0387420   6.5833940  28.4827670 152.8772370   2.7274360  23.3941560
 153.2442500   2.2532930  24.1402900 152.6877430   3.6015930  23.7349900
 150.6671740   1.7683000  25.7125770 150.3628810   2.6474980  25.9376130
 151.6218200   1.8282790  25.7483210 149.1953530   5.9743990  16.3092620
 148.4215790   5.4341610  16.1491340 149.9248160   5.4550600  15.9710380
 159.9541510   4.9709350  22.1019010 160.6740630   5.4664640  21.7115120
 159.7523330   4.2927240  21.4572880 155.3360310   5.0418410  27.9888010
 155.2697620   4.1214080  27.7345600 154.7065450   5.1393850  28.7032650
 149.2390930   5.6424370  19.9471430 149.7569600   4.8392630  19.8928320
 148.7874950   5.5803510  20.7888260 154.1260430   6.9090650  15.2198730
 154.4676130   7.6532880  14.7242050 153.2973140   7.2221770  15.5823560
 146.7235470   2.6085740  26.8597130 146.3650410   3.2739590  27.4470470
 146.4290030   1.7769290  27.2309750 149.9248590   3.0669980  29.7436680
 149.6248730   3.2127160  28.8464500 150.6959830   2.5075270  29.6510070
 155.2677040   7.8638980  27.7391810 155.2821580   6.9319940  27.5210720
 154.5602140   7.9498740  28.3781580 160.4014110   2.0478800  14.0090420
 160.3177830   2.4793020  13.1586860 161.1208300   2.5077150  14.4417240
 161.4788250   4.5046320  27.0860390 160.7536440   5.0975100  26.8889780
 162.0063710   4.4969860  26.2873760 161.4301360   8.9021060  16.7372550
 160.7877520   8.2476680  17.0116270 161.0432020   9.3076150  15.9613220
 157.0087840   6.2306490  20.5844240 157.3611660   5.6334620  19.9245610
 156.1250170   5.9050720  20.7552490 153.0951120   6.9904180  17.9914650
 153.7822250   7.5373390  18.3722240 152.3083540   7.5344910  18.0264260
 145.2343520   2.6077000  13.4831730 146.1038370   2.8901800  13.7667650
 144.7433840   3.4212870  13.3680540 152.3978330   3.9950210  17.6040010
 152.8541110   4.8055460  17.8300200 152.0466540   3.6773350  18.4358500
 154.7010940   9.5056550  24.8332310 155.3453160   9.7115930  25.5105730
 155.0640380   8.7444950  24.3803160 155.9743020   7.5088900  23.5509760
 156.6165250   6.8082060  23.6641930 156.4992370   8.2887340  23.3706650
 159.8198740   7.7937520  13.2748900 159.5936320   7.0767960  13.8673540
 159.4294940   7.5449960  12.4370650 157.7480640   8.3083800  26.7545820
 158.0836880   8.8950490  27.4323740 156.8280980   8.1776510  26.9843610
 145.6014770  11.8204380  14.0493360 145.9612410  12.4193720  13.3950630
 145.4607110  12.3664270  14.8228390 159.4014990   5.7109460  14.9363060
 159.1136690   6.1722150  15.7240940 160.1967160   5.2507230  15.2047280
 145.5856630  10.0859240  28.5235760 145.6947750   9.1453980  28.3831150
 144.9337190  10.3513990  27.8749490 153.5769220   8.3575130  29.9233880
 153.2566090   7.6384370  30.4679570 152.9027580   9.0330200  29.9969940
 151.6183390   9.2035580  14.8667030 151.6093490   9.9365270  14.2511540
 150.6981750   8.9567160  14.9593990 147.2190030   4.4250470  15.6113790
 146.6117980   5.1649370  15.6209090 147.6939380   4.5149830  14.7851990
 154.6042990   9.2663820  13.5292220 154.7054970   9.0627810  12.5994200
 153.7044730   9.0122100  13.7340000 153.2461100  11.7850140  18.2239890
 153.5002600  11.7471530  17.3019260 152.2973580  11.6583470  18.2168140
 159.2513680   2.7042020  19.7998400 158.3103820   2.7192250  19.9746090
 159.5657750   1.9177980  20.2458700 149.2295320   4.3861620  13.3602360
 149.9958590   4.2742980  13.9227790 149.3070010   3.6899590  12.7079130
 161.2539260   9.8750870  21.4752660 161.3786680  10.6982040  21.9476470
 162.1204820   9.6641600  21.1276810 148.7256790  11.9682080  21.1469790
 149.4619270  11.4197540  21.4178360 149.1097710  12.8338090  21.0075780
 145.6102270   8.0355650  17.0211300 144.6842050   8.2776790  17.0116710
 146.0758700   8.8629910  16.8996050 147.7315070  11.1528150  30.3355370
 148.5327800  11.4740200  30.7490770 147.2166890  10.7923730  31.0575280
 151.8359100  11.1412390  12.9695360 152.6287710  11.4301220  12.5177150
 151.3163450  10.7104560  12.2907840 156.5679700   7.2608020  30.2830780
 155.9617860   7.2839620  29.5426530 156.2633810   6.5291060  30.8198030
 157.9980070  10.9888310  28.8940190 158.9501820  10.9046330  28.8440430
 157.8508290  11.6530020  29.5673980 160.8889270  10.3682520  14.3932100
 160.6030780   9.9547660  13.5786280 160.6908820  11.2970230  14.2732620
 145.4512880   3.6401610  29.2791420 145.9551900   3.0608890  29.8507650
 144.7120300   3.9241840  29.8167790 152.3536500   6.3615800  12.8337710
 152.2487140   5.7468150  13.5599090 152.1860720   5.8381690  12.0500720
 152.5050820   5.0472600  28.8126940 151.7396490   5.6157600  28.7281610
 152.6866780   4.7548810  27.9195170 155.5939230   5.4235830  13.4379700
 155.0449330   5.8705130  14.0822440 156.2158490   4.9185080  13.9617370
 159.6474170   6.7777930  29.3701960 160.3883640   7.1153690  28.8669420
 158.8846850   6.9469990  28.8171730 147.4835960   1.7831200  30.1741490
 147.5241300   1.4845070  31.0826720 148.3381460   2.1838810  30.0149010
 151.2614350   4.3826750  15.3345000 151.6830770   4.2166620  16.1776390
 151.3865190   3.5726980  14.8400140 153.7741990   3.4064360  12.5822100
 154.2947650   2.6913380  12.2163250 154.4210390   4.0450230  12.8822610
 158.3219830   4.8292760  27.9057170 158.7360850   4.9837840  28.7547590
 157.3870830   4.9547980  28.0682950 158.7942000   2.1688920  29.9096320
 159.3762770   1.4141240  29.8216800 158.9703770   2.6996360  29.1327800
 153.0835060   4.7813240  25.8753100 153.5023170   5.6245970  25.7029340
 152.1643690   4.9185280  25.6459880 155.4198960   2.5129420  27.2590940
 155.5395170   1.9170560  27.9985780 156.2792960   2.5499110  26.8392240
 157.7586860   3.0666610  25.8353450 157.2322080   3.5909230  25.2318590
 158.1018200   3.6994000  26.4663180 150.9342480  11.0866250  26.9910830
 150.3963570  11.8112310  26.6719530 151.1876440  10.6096590  26.2008170
 153.7904690  12.3217460  27.2497480 153.7163390  13.2252600  27.5569850
 152.8883530  12.0029360  27.2219550 154.3390020  11.4875970  14.8723840
 155.2340810  11.8260940  14.8942600 154.3707650  10.7655380  14.2448120
 147.9786180   6.8603020  13.1010840 148.4161050   7.4032690  13.7568420
 148.4633910   6.0349970  13.1107180 145.1931980   9.6492050  20.5531100
 145.5234990   8.7813110  20.3209740 145.6222980   9.8550570  21.3836060
 149.7893900   7.9801060  18.2133070 149.4889440   7.8566030  19.1136980
 149.6831390   7.1209650  17.8048800 145.6822190  10.5162640  23.2912730
 145.2453180  10.6963440  24.1236880 146.2499870  11.2737260  23.1494450
 161.3184370  10.0179640  27.5790040 160.7186360  10.0772200  26.8353960
 161.4478270   9.0784620  27.7086890 162.5585820   7.7597460  12.9159750
 161.7278780   7.8274110  13.3866980 162.7357650   8.6501580  12.6126610
 162.0142280   4.5044940  15.4193950 162.7761190   5.0741590  15.5253640
 162.0296650   3.9372140  16.1902260 145.5146620   3.0282870  19.6501610
 144.8595460   2.7594510  19.0061310 146.3524570   2.9187350  19.2003590
 163.0202250   5.3595040  20.2635880 163.3911080   4.5762360  19.8571850
 163.6604180   6.0484140  20.0853180 160.0036010   6.7431620  25.6766200
 159.1895850   7.1728780  25.9391990 160.4110210   7.3550030  25.0635250
 162.0661450   4.7979310  12.5766470 162.3410290   5.7058190  12.4485690
 161.8772190   4.7341840  13.5128460 161.9626790   2.7348300  17.5695900
 161.5870390   1.9676230  17.1377190 161.2329910   3.1171000  18.0570830
 146.5522550   3.4135440  24.1904950 146.9195590   3.3262840  25.0700970
 145.9833370   2.6501990  24.0911810 161.3526410   1.8819820  27.2035420
 161.1212500   1.6532570  26.3033370 161.6130960   2.8019370  27.1580310
 160.0612060  11.4950220  19.2034470 160.6571130  11.1734790  18.5268890
 160.3190210  11.0222040  19.9947740 147.9674630   7.9268130  29.3525100
 147.9244260   7.5561040  30.2339560 148.0985640   8.8645700  29.4926920
 151.6680660   9.4827720  24.9534820 151.4272020   9.7502280  24.0665340
 152.6083300   9.6533450  25.0085680 162.9284820  11.5022100  25.7545460
 162.4343100  11.8990970  25.0372590 162.3198110  10.8771310  26.1482740
 147.8062660  10.8730380  26.4722880 147.2122980  10.7415080  27.2112920
 147.7986500  10.0368520  26.0064980 160.6124270  12.1445520  23.0332200
 160.1527240  12.8961330  22.6590220 159.9836730  11.4251990  22.9747000
 147.4374890   8.2388760  25.4230920 146.7108950   7.6194050  25.3556870
 147.4984040   8.6329370  24.5529000 151.0419990  10.4533760  22.2080330
 151.5585010   9.8421120  21.6828590 151.6917370  10.9562540  22.6991340
 153.7815490  11.3442250  23.0349310 154.0693300  11.0896550  22.1582320
 154.2938710  10.7919610  23.6254880 145.7204890  11.5563150  18.6327680
 145.5526930  10.9233830  19.3309570 144.8539400  11.7622550  18.2821870
 147.3267590  10.2496380  16.0777820 146.8015210  10.6304410  15.3739780
 147.2512170  10.8747150  16.7987530 153.8487850  12.2658350  30.4017510
 154.7755160  12.0302620  30.4453470 153.8338280  13.0930350  29.9203540
 162.0832910  11.8083920  17.3991760 162.2585100  11.1221660  16.7552680
 161.3854480  12.3330970  17.0068430 149.9260560  12.1978760  14.9527070
 150.6579380  11.9138040  14.4050960 150.1854230  11.9592040  15.8426450
 149.0875350   8.3143490  14.9573400 148.4584230   8.7828590  15.5059230
 149.2023180   7.4692710  15.3919590 160.4165410  11.4928210  30.2258550
 161.2090730  10.9977440  30.0184510 160.7098560  12.1718350  30.8334160
 154.6743110   4.1428170   2.9883870 153.8985210   3.6628610   3.2782440
 155.3256040   3.4633820   2.8140030 148.6908940   4.4547980   3.8659630
 147.8593820   4.1996690   4.2656140 149.2989920   4.5258750   4.6017550
 158.6950540   8.5488360   1.7683000 158.2332070   7.7775600   2.0970170
 159.5076090   8.5754430   2.2735450 148.6710200   8.4888070   4.0617650
 148.9738240   7.5985810   3.8827870 149.4153790   9.0458290   3.8339900
 145.0633900   2.0155520   3.5341720 145.6350010   1.2477720   3.5345360
 145.0635440   2.3144280   2.6248330 154.1152100   6.8185360   2.9954030
 154.0460380   5.8775300   2.8343160 154.8771960   6.9086770   3.5676600
 150.6508960   5.2461480   5.4602500 150.3178340   5.8730400   6.1023570
 150.8275640   5.7723360   4.6804170 149.8628060   7.2142280   7.2751680
 150.4802060   7.8893360   6.9936130 149.0021180   7.6230260   7.1839180
 160.7805650   8.6781690   5.1906320 160.0969170   9.3480800   5.1822990
 161.3199940   8.8762340   4.4251180 158.3164390  10.5225820   3.9051500
 158.3291550  10.1188110   3.0373760 157.7639610  11.2973110   3.8012930
 157.7149830   5.4255660   5.2334110 158.1318620   5.2115770   4.3987570
 158.4389650   5.6828450   5.8042730 151.2268430   7.0839660   3.2963100
 150.9296720   6.4785130   2.6170880 152.1768250   7.1216970   3.1852460
 159.3154040  10.6571530   6.9586200 158.8384600  11.4643720   6.7658810
 158.6315830  10.0049860   7.1112410 150.3186860   6.8221350   9.9470900
 149.4215390   7.0461320  10.1944300 150.3439730   6.9456290   8.9982300
 149.1458080   3.6934670   8.5228270 149.0065850   4.5657470   8.8915670
 148.2639440   3.3507480   8.3776210 150.9438430   9.6356370  10.7313420
 150.9153860  10.0399320   9.8641850 150.7803400   8.7066730  10.5685020
 162.8953250  10.4183470  12.0277590 163.3712970  10.8966360  12.7066670
 163.5160410  10.3500960  11.3023090 145.0976730   5.4632220   4.4399180
 145.1757150   5.5980990   3.4954900 145.7118410   4.7548110   4.6327300
 162.2986500   7.6096320   9.1877600 162.4249560   7.3708200   8.2694780
 162.3407880   6.7780860   9.6599680 156.1603240  11.3124320   7.7572410
 156.6747910  11.2232330   8.5594840 155.3172320  11.6584020   8.0500320
 145.1536250   6.5046390   6.9793640 145.3167290   6.0351750   6.1613010
 145.6188700   5.9969950   7.6442480 146.7275230   5.8797820   9.1389450
 146.3430020   5.2391490   9.7372410 147.0387420   6.5833940   9.7084180
 152.8772370   2.7274360   4.6198070 153.2442500   2.2532930   5.3659410
 152.6877430   3.6015930   4.9606410 150.6671740   1.7683000   6.9382280
 150.3628810   2.6474980   7.1632640 151.6218200   1.8282790   6.9739720
 159.9541510   4.9709350   3.3275520 160.6740630   5.4664640   2.9371630
 159.7523330   4.2927240   2.6829390 155.3360310   5.0418410   9.2144520
 155.2697620   4.1214080   8.9602110 154.7065450   5.1393850   9.9289160
 146.7235470   2.6085740   8.0853640 146.3650410   3.2739590   8.6726980
 146.4290030   1.7769290   8.4566260 149.9248590   3.0669980  10.9693190
 149.6248730   3.2127160  10.0721010 150.6959830   2.5075270  10.8766580
 155.2677040   7.8638980   8.9648320 155.2821580   6.9319940   8.7467230
 154.5602140   7.9498740   9.6038090 161.4788250   4.5046320   8.3116900
 160.7536440   5.0975100   8.1146290 162.0063710   4.4969860   7.5130270
 154.7010940   9.5056550   6.0588820 155.3453160   9.7115930   6.7362240
 155.0640380   8.7444950   5.6059670 155.9743020   7.5088900   4.7766270
 156.6165250   6.8082060   4.8898440 156.4992370   8.2887340   4.5963160
 157.7480640   8.3083800   7.9802330 158.0836880   8.8950490   8.6580250
 156.8280980   8.1776510   8.2100120 145.5856630  10.0859240   9.7492270
 145.6947750   9.1453980   9.6087660 144.9337190  10.3513990   9.1006000
 153.5769220   8.3575130  11.1490390 153.2566090   7.6384370  11.6936080
 152.9027580   9.0330200  11.2226450 161.2539260   9.8750870   2.7009170
 161.3786680  10.6982040   3.1732980 162.1204820   9.6641600   2.3533320
 148.7256790  11.9682080   2.3726300 149.4619270  11.4197540   2.6434870
 149.1097710  12.8338090   2.2332290 147.7315070  11.1528150  11.5611880
 148.5327800  11.4740200  11.9747280 147.2166890  10.7923730  12.2831790
 156.5679700   7.2608020  11.5087290 155.9617860   7.2839620  10.7683040
 156.2633810   6.5291060  12.0454540 157.9980070  10.9888310  10.1196700
 158.9501820  10.9046330  10.0696940 157.8508290  11.6530020  10.7930490
 145.4512880   3.6401610  10.5047930 145.9551900   3.0608890  11.0764160
 144.7120300   3.9241840  11.0424300 152.5050820   5.0472600  10.0383450
 151.7396490   5.6157600   9.9538120 152.6866780   4.7548810   9.1451680
 159.6474170   6.7777930  10.5958470 160.3883640   7.1153690  10.0925930
 158.8846850   6.9469990  10.0428240 147.4835960   1.7831200  11.3998000
 147.5241300   1.4845070  12.3083230 148.3381460   2.1838810  11.2405520
 158.3219830   4.8292760   9.1313680 158.7360850   4.9837840   9.9804100
 157.3870830   4.9547980   9.2939460 158.7942000   2.1688920  11.1352830
 159.3762770   1.4141240  11.0473310 158.9703770   2.6996360  10.3584310
 153.0835060   4.7813240   7.1009610 153.5023170   5.6245970   6.9285850
 152.1643690   4.9185280   6.8716390 155.4198960   2.5129420   8.4847450
 155.5395170   1.9170560   9.2242290 156.2792960   2.5499110   8.0648750
 157.7586860   3.0666610   7.0609960 157.2322080   3.5909230   6.4575100
 158.1018200   3.6994000   7.6919690 150.9342480  11.0866250   8.2167340
 150.3963570  11.8112310   7.8976040 151.1876440  10.6096590   7.4264680
 153.7904690  12.3217460   8.4753990 153.7163390  13.2252600   8.7826360
 152.8883530  12.0029360   8.4476060 145.1931980   9.6492050   1.7787610
 145.5234990   8.7813110   1.5466250 145.6222980   9.8550570   2.6092570
 145.6822190  10.5162640   4.5169240 145.2453180  10.6963440   5.3493390
 146.2499870  11.2737260   4.3750960 161.3184370  10.0179640   8.8046550
 160.7186360  10.0772200   8.0610470 161.4478270   9.0784620   8.9343400
 160.0036010   6.7431620   6.9022710 159.1895850   7.1728780   7.1648500
 160.4110210   7.3550030   6.2891760 146.5522550   3.4135440   5.4161460
 146.9195590   3.3262840   6.2957480 145.9833370   2.6501990   5.3168320
 161.3526410   1.8819820   8.4291930 161.1212500   1.6532570   7.5289880
 161.6130960   2.8019370   8.3836820 147.9674630   7.9268130  10.5781610
 147.9244260   7.5561040  11.4596070 148.0985640   8.8645700  10.7183430
 151.6680660   9.4827720   6.1791330 151.4272020   9.7502280   5.2921850
 152.6083300   9.6533450   6.2342190 162.9284820  11.5022100   6.9801970
 162.4343100  11.8990970   6.2629100 162.3198110  10.8771310   7.3739250
 147.8062660  10.8730380   7.6979390 147.2122980  10.7415080   8.4369430
 147.7986500  10.0368520   7.2321490 160.6124270  12.1445520   4.2588710
 160.1527240  12.8961330   3.8846730 159.9836730  11.4251990   4.2003510
 147.4374890   8.2388760   6.6487430 146.7108950   7.6194050   6.5813380
 147.4984040   8.6329370   5.7785510 151.0419990  10.4533760   3.4336840
 151.5585010   9.8421120   2.9085100 151.6917370  10.9562540   3.9247850
 153.7815490  11.3442250   4.2605820 154.0693300  11.0896550   3.3838830
 154.2938710  10.7919610   4.8511390 153.8487850  12.2658350  11.6274020
 154.7755160  12.0302620  11.6709980 153.8338280  13.0930350  11.1460050
 160.4165410  11.4928210  11.4515060 161.2090730  10.9977440  11.2441020
 160.7098560  12.1718350  12.0590670 137.7681580  96.2366600  57.4305070
 137.6875630  95.3221210  57.1596780 137.3546000  96.7333670  56.7244780
 135.8999620  98.0145620  59.3114340 135.1241720  97.5346060  59.6012910
 136.5512550  97.3351270  59.1370500 126.2890410  95.8872970  59.8572190
 126.8606520  95.1195170  59.8575830 126.2891950  96.1861730  58.9478800
 136.3713780  93.4973190  59.5453430 136.7478600  92.6245070  59.4327100
 136.2733290  93.8331890  58.6543870 130.5018790  91.8698820  55.0070870
 130.6085540  92.7702550  55.3139630 129.5911150  91.8216790  54.7165520
 140.1537900  90.9923630  56.4781770 140.9747520  90.5020200  56.5207250
 140.1871980  91.5821290  57.2313610 132.3426520  94.8385190  59.3396050
 132.8504740  95.3366160  59.9801070 132.8739760  94.0620390  59.1635410
 140.3899380  92.9324010  59.2509310 139.6854950  93.2208900  59.8312420
 140.7511540  93.7424120  58.8908870 143.4586300  92.3778800  59.6418520
 142.5111210  92.4117780  59.7733950 143.7836290  93.1917750  60.0267880
 133.9905840  88.6775980  57.9374510 134.2980820  88.1222870  57.2210010
 133.0606540  88.8120440  57.7547500 136.3786600  96.7424810  54.6734630
 135.4515880  96.6762190  54.9023100 136.5311420  97.6804940  54.5589870
 136.3655680  93.0141810  51.6701790 135.4259350  93.1755770  51.7554250
 136.6838940  93.7327490  51.1237780 140.4083890  98.3045110  55.1769880
 139.7896310  97.9664660  54.5296180 140.3908340  97.6604870  55.8849070
 131.9843240  97.2689550  57.4554360 131.5800240  96.5566800  56.9600260
 132.0706360  96.9242790  58.3442400 138.5848590  97.5431920  52.1842630
 139.0241870  96.7054350  52.0380450 139.2977010  98.1761320  52.2706770
 142.1665730  88.7974730  50.4983670 141.8538390  88.8901560  51.3982740
 142.9278200  89.3755760  50.4481100 128.6847870  96.1634530  54.9561010
 128.5645470  96.8896620  54.3442280 128.3748760  95.3937440  54.4788920
 131.1511530  89.5069600  58.3384680 130.7079680  90.2879140  58.0069200
 131.7096520  89.8299490  59.0455620 134.2670350  89.1280300  53.2190510
 133.6424530  89.1240170  53.9443820 134.1800470  88.2611260  52.8226480
 133.1887430  90.0516930  60.1974280 133.4859760  90.9579760  60.1166300
 133.7372990  89.5635710  59.5833850 130.9425750  94.6303170  56.0665930
 130.7166670  94.4140340  56.9712550 130.1618280  95.0631630  55.7211900
 138.1723510  94.6366540  54.6656580 137.5732400  95.3602340  54.4820200
 138.7203120  94.5743320  53.8833030 136.7788380  93.2730080  56.6959860
 137.1717950  93.5902280  55.8828550 137.1405230  92.3941960  56.8104380
 125.8152550  89.8630880  58.9190060 125.5265600  90.4333740  59.6315040
 126.5598310  89.3835330  59.2821290 126.0022780  93.8051000  50.1292780
 125.9197450  94.7481760  50.2707770 125.6505840  93.6625910  49.2505130
 133.8020910  92.5390030  59.1963130 133.8056970  92.0979980  58.3467670
 134.6972030  92.8607360  59.3034950 129.6523290  92.4216520  58.1557340
 129.3123340  92.8991750  58.9124390 128.8900610  91.9681640  57.7958440
 133.8641060  93.5402110  52.1869890 133.9853880  93.4988590  53.1355710
 133.4789570  94.4026260  52.0316620 132.8762560  95.8503250  51.5853190
 132.3079460  95.4021500  50.9589100 133.5851560  96.2096030  51.0518340
 126.9669370  91.3435500  57.0722010 126.6816290  90.9791170  57.9100630
 126.9048230  90.6115960  56.4585150 136.6407960  90.2364760  53.7935380
 135.8272570  89.7377930  53.7180690 136.4469910  91.0763010  53.3771730
 139.3556350  94.6084410  52.0897540 140.2435970  94.9201640  51.9148880
 139.3261440  93.7356660  51.6978120 141.6270620  95.9196250  51.5577400
 141.5434340  96.3510470  50.7073840 142.3464810  96.3794600  51.9904220
 126.4600030  96.4794450  51.0318710 127.3294880  96.7619250  51.3154630
 125.9690350  97.2930320  50.9167520 133.6234840  97.8667660  55.1526990
 134.0797620  98.6772910  55.3787180 133.2723050  97.5490800  55.9845480
 129.5246620  88.2105310  55.6249510 129.3961250  88.2023210  56.5734430
 128.7008640  88.5488400  55.2740520 141.3841360  91.4175680  53.6445220
 140.7554520  91.5221350  52.9303450 140.8893280  91.6372460  54.4339100
 133.3525390  93.6961630  55.0603100 132.6441540  94.1647970  55.5016710
 133.6369870  93.0383640  55.6948290 137.3840820  90.4212290  56.4998890
 137.2608600  90.4398420  55.5508400 138.3325380  90.4691230  56.6197290
 131.5560410  92.0046710  52.4353810 132.4050940  92.4416860  52.3694000
 131.1891680  92.3166970  53.2625870 140.4770190  96.5759470  57.3485380
 139.5360330  96.5909700  57.5233070 140.7914260  95.7895430  57.7945680
 130.4551830  98.2579070  50.9089340 131.2215100  98.1460430  51.4714770
 130.5326520  97.5617040  50.2566110 129.1498590  95.6904140  51.5922230
 129.2302180  94.7431650  51.7039630 130.0418340  96.0211020  51.6982890
 132.4870860  98.2544200  52.8831980 132.9087280  98.0884070  53.7263370
 132.6121700  97.4444430  52.3887120 134.9998500  97.2781810  50.1309080
 135.5204160  96.5630830  49.7650230 135.6466900  97.9167680  50.4309590
 131.3829760  94.3277430  49.8290140 131.1818820  93.4644790  50.1903480
 131.2121810  94.2410790  48.8911740 138.8618070  89.1385660  52.3577020
 139.1420360  88.2953560  52.7136440 138.0883800  89.3708770  52.8715770
 130.1812560  91.4278050  49.8168020 130.4838460  91.4345480  48.9087170
 130.9207150  91.0775910  50.3135680 133.3997490  90.3712670  50.8024220
 133.0519490  89.6936660  50.2226670 133.6010260  89.9102180  51.6167610
 143.2398790  98.3762390  52.9680930 144.0017700  98.9459040  53.0740620
 143.2553160  97.8089590  53.7389240 126.7403130  96.9000320  57.1988590
 126.0851970  96.6311960  56.5548290 127.5781080  96.7904800  56.7490570
 139.6893570  91.6941610  51.4207080 140.1078450  91.5072590  50.5803740
 139.3829630  90.8420660  51.7310010 143.1883300  96.6065750  55.1182880
 142.8126900  95.8393680  54.6864170 142.4586420  96.9888450  55.6057810
 125.9541210  94.1099250  53.1413920 125.0505290  94.3729450  52.9665580
 126.4381830  94.3810420  52.3613880 142.4634260  94.8323240  58.4190120
 142.9871740  94.3385890  57.7880290 143.0493680  94.9673600  59.1637690
 128.4968420  93.1664790  51.0508300 129.2060120  92.7448010  50.5655580
 127.7808360  93.2340020  50.4191650 128.1442580  89.2204120  50.0910950
 128.8670710  89.7613060  50.4092170 128.4167100  88.9467540  49.2152490
 141.9534230  94.0896590  54.3582530 142.4493350  93.8567460  55.1431410
 141.7550300  93.2508430  53.9420170 143.3821390  92.7257540  56.8920210
 143.2720670  92.5713580  57.8302480 144.1428980  92.1978480  56.6495620
 144.2711660  90.5565460  50.1326350 145.1960970  90.4246640  49.9244640
 144.2487450  90.6358280  51.0862800 144.3450150  91.3276120  52.7583060
 143.5501650  91.2621240  53.2875970 144.5493430  92.2626760  52.7468410
 142.6408650  89.2888240  57.2190710 142.5797050  88.3449460  57.0721730
 143.4200680  89.3968330  57.7644170 127.5689420  89.2597380  53.6846520
 128.3268780  89.3726260  53.1110550 127.1066590  90.0966580  53.6389950
 134.1103230  91.3736650  56.6748830 133.2977740  90.9993540  56.3344710
 134.6144870  90.6181730  56.9770020 138.6128210  88.0379100  57.9131900
 139.2157580  88.6099310  58.3880420 137.8721200  88.6018540  57.6905800
 141.7562810  88.4400660  53.1872180 141.9513440  89.3384110  53.4539610
 140.9692680  88.2087740  53.6805130 129.9414570  89.7861430  52.2248490
 130.4707330  88.9991230  52.0956440 130.5742890  90.4652620  52.4584020
 132.1352410  89.5236570  55.2793880 131.5055150  88.8223880  55.4464010
 131.5957550  90.2840700  55.0627040 137.7681580  96.2366600  38.6561580
 137.6875630  95.3221210  38.3853290 137.3546000  96.7333670  37.9501290
 135.8999620  98.0145620  40.5370850 135.1241720  97.5346060  40.8269420
 136.5512550  97.3351270  40.3627010 129.9165450  98.3265430  41.4146610
 129.0850330  98.0714140  41.8143120 130.5246430  98.3976200  42.1504530
 128.3257400  93.2867320  35.1989000 127.4374100  93.6283290  35.0968880
 128.6098590  93.0867640  34.3069830 126.2890410  95.8872970  41.0828700
 126.8606520  95.1195170  41.0832340 126.2891950  96.1861730  40.1735310
 127.5315280  91.2957330  42.8697630 127.3518120  90.3983080  43.1500390
 127.1295360  91.8429200  43.5444580 136.3713780  93.4973190  40.7709940
 136.7478600  92.6245070  40.6583610 136.2733290  93.8331890  39.8800380
 130.5018790  91.8698820  36.2327380 130.6085540  92.7702550  36.5396140
 129.5911150  91.8216790  35.9422030 140.1537900  90.9923630  37.7038280
 140.9747520  90.5020200  37.7463760 140.1871980  91.5821290  38.4570120
 128.1501950  93.7917830  41.4779970 128.8312060  94.0556200  42.0967370
 127.8350000  92.9518700  41.8117980 132.3426520  94.8385190  40.5652560
 132.8504740  95.3366160  41.2057580 132.8739760  94.0620390  40.3891920
 144.4437450  93.0090380  44.2681910 143.7389620  93.3972090  43.7497020
 144.7095370  93.7040670  44.8702840 130.6262620  89.4783750  44.8315980
 130.6281060  89.9956140  44.0261880 129.7966930  89.0013930  44.8085910
 140.3899380  92.9324010  40.4765820 139.6854950  93.2208900  41.0568930
 140.7511540  93.7424120  40.1165380 130.3077950  91.1893710  42.8386430
 130.6494760  92.0335760  42.5440300 129.3693760  91.3377450  42.9551770
 143.4586300  92.3778800  40.8675030 142.5111210  92.4117780  40.9990460
 143.7836290  93.1917750  41.2524390 133.9905840  88.6775980  39.1631020
 134.2980820  88.1222870  38.4466520 133.0606540  88.8120440  38.9804010
 136.3786600  96.7424810  35.8991140 135.4515880  96.6762190  36.1279610
 136.5311420  97.6804940  35.7846380 136.3655680  93.0141810  32.8958300
 135.4259350  93.1755770  32.9810760 136.6838940  93.7327490  32.3494290
 142.8868440  97.6960330  42.8737330 142.0587070  97.7653420  42.3987460
 143.4818920  98.2814640  42.4053160 140.4083890  98.3045110  36.4026390
 139.7896310  97.9664660  35.7552690 140.3908340  97.6604870  37.1105580
 139.8510450  94.4829650  43.8192200 139.4381630  95.3083360  44.0732190
 139.1186400  93.8974690  43.6268560 131.9843240  97.2689550  38.6810870
 131.5800240  96.5566800  38.1856770 132.0706360  96.9242790  39.5698910
 130.6971860  94.0432760  42.4609910 131.2486450  94.1528100  41.6863160
 131.2115370  94.4170360  43.1765140 138.5848590  97.5431920  33.4099140
 139.0241870  96.7054350  33.2636960 139.2977010  98.1761320  33.4963280
 130.3714590  97.5652120  46.0715250 130.2322360  98.4374920  46.4402650
 129.4895950  97.2224930  45.9263190 142.1665730  88.7974730  31.7240180
 141.8538390  88.8901560  32.6239250 142.9278200  89.3755760  31.6737610
 128.6847870  96.1634530  36.1817520 128.5645470  96.8896620  35.5698790
 128.3748760  95.3937440  35.7045430 143.3767020  93.5346230  47.7014320
 142.7611290  94.0425900  47.1729780 143.0563440  92.6344560  47.6440260
 131.1511530  89.5069600  39.5641190 130.7079680  90.2879140  39.2325710
 131.7096520  89.8299490  40.2712130 135.4381340  92.3738120  45.1676510
 134.9760710  92.5821140  45.9796450 135.0359450  91.5597470  44.8647180
 140.4385850  93.5947070  46.2973170 139.5879440  93.2952820  46.6182240
 140.2787640  93.8389080  45.3856990 137.5335560  95.0948820  48.3971960
 137.8588970  94.2612570  48.0574190 138.3215890  95.6177340  48.5450290
 134.2670350  89.1280300  34.4447020 133.6424530  89.1240170  35.1700330
 134.1800470  88.2611260  34.0482990 133.1887430  90.0516930  41.4230790
 133.4859760  90.9579760  41.3422810 133.7372990  89.5635710  40.8090360
 130.9425750  94.6303170  37.2922440 130.7166670  94.4140340  38.1969060
 130.1618280  95.0631630  36.9468410 138.1723510  94.6366540  35.8913090
 137.5732400  95.3602340  35.7076710 138.7203120  94.5743320  35.1089540
 133.3824960  95.5288750  47.9582710 133.2868560  94.5883480  47.8083110
 134.2256940  95.7503820  47.5630780 136.7788380  93.2730080  37.9216370
 137.1717950  93.5902280  37.1085060 137.1405230  92.3941960  38.0360890
 128.5135500  91.9402420  46.1116490 128.1198890  92.7877630  46.3189270
 127.8253900  91.3028790  46.3025130 135.0880550  92.0237390  49.1813230
 134.3978870  91.8309590  49.8159320 135.8312850  92.3072030  49.7137530
 125.8152550  89.8630880  40.1446570 125.5265600  90.4333740  40.8571550
 126.5598310  89.3835330  40.5077800 126.0022780  93.8051000  31.3549290
 125.9197450  94.7481760  31.4964280 125.6505840  93.6625910  30.4761640
 137.3643520  95.8635830  42.0167150 136.6324640  96.3722640  42.3657250
 136.9667860  95.0465810  41.7155930 133.8020910  92.5390030  40.4219640
 133.8056970  92.0979980  39.5724180 134.6972030  92.8607360  40.5291460
 129.6523290  92.4216520  39.3813850 129.3123340  92.8991750  40.1380900
 128.8900610  91.9681640  39.0214950 133.8641060  93.5402110  33.4126400
 133.9853880  93.4988590  34.3612220 133.4789570  94.4026260  33.2573130
 137.8269430  91.3169510  41.4290090 137.8442170  91.7678160  42.2731940
 137.5785010  90.4175150  41.6423530 132.8762560  95.8503250  32.8109700
 132.3079460  95.4021500  32.1845610 133.5851560  96.2096030  32.2774850
 141.2540180  88.7301690  47.2676470 141.5785950  87.9991350  47.7934450
 141.2896690  88.4115330  46.3657460 134.1028880  96.5991810  42.1685050
 134.4699010  96.1250380  42.9146390 133.9133940  97.4733380  42.5093390
 126.9669370  91.3435500  38.2978520 126.6816290  90.9791170  39.1357140
 126.9048230  90.6115960  37.6841660 131.8928250  95.6400450  44.4869260
 131.5885320  96.5192430  44.7119620 132.8474710  95.7000240  44.5226700
 136.6407960  90.2364760  35.0191890 135.8272570  89.7377930  34.9437200
 136.4469910  91.0763010  34.6028240 139.3556350  94.6084410  33.3154050
 140.2435970  94.9201640  33.1405390 139.3261440  93.7356660  32.9234630
 127.9491980  96.4803190  45.6340620 127.5906920  97.1457040  46.2213960
 127.6546540  95.6486740  46.0053240 131.1505100  96.9387430  48.5180170
 130.8505240  97.0844610  47.6207990 131.9216340  96.3792720  48.4253560
 141.6270620  95.9196250  32.7833910 141.5434340  96.3510470  31.9330350
 142.3464810  96.3794600  33.2160730 142.7044760  98.3763770  45.8603880
 141.9792950  98.9692550  45.6633270 143.2320220  98.3687310  45.0617250
 126.4600030  96.4794450  32.2575220 127.3294880  96.7619250  32.5411140
 125.9690350  97.2930320  32.1424030 133.6234840  97.8667660  36.3783500
 134.0797620  98.6772910  36.6043690 133.2723050  97.5490800  37.2101990
 129.5246620  88.2105310  36.8506020 129.3961250  88.2023210  37.7990940
 128.7008640  88.5488400  36.4997030 126.5240550  89.9696430  46.3112720
 125.8099070  90.1693350  46.9165330 126.9435590  89.1936000  46.6827520
 138.0179330  92.4618740  44.0614170 138.3860150  91.6413950  44.3893740
 137.1577530  92.5220630  44.4769820 141.3841360  91.4175680  34.8701730
 140.7554520  91.5221350  34.1559960 140.8893280  91.6372460  35.6595610
 133.3525390  93.6961630  36.2859610 132.6441540  94.1647970  36.7273220
 133.6369870  93.0383640  36.9204800 134.9781320  95.1158330  44.2852140
 135.4766570  95.5904150  44.9503990 135.1204270  94.1921850  44.4922170
 137.3840820  90.4212290  37.7255400 137.2608600  90.4398420  36.7764910
 138.3325380  90.4691230  37.8453800 131.5560410  92.0046710  33.6610320
 132.4050940  92.4416860  33.5950510 131.1891680  92.3166970  34.4882380
 142.1848180  91.3326290  45.1280530 141.6821780  92.0731690  45.4674340
 143.0004840  91.7210290  44.8117320 140.4770190  96.5759470  38.5741890
 139.5360330  96.5909700  38.7489580 140.7914260  95.7895430  39.0202190
 130.4551830  98.2579070  32.1345850 131.2215100  98.1460430  32.6971280
 130.5326520  97.5617040  31.4822620 129.1498590  95.6904140  32.8178740
 129.2302180  94.7431650  32.9296140 130.0418340  96.0211020  32.9239400
 126.6769390  97.5119060  48.0534910 127.1808410  96.9326340  48.6251140
 125.9376810  97.7959290  48.5911280 128.7092470  95.6548650  48.9484980
 128.7497810  95.3562520  49.8570210 129.5637970  96.0556260  48.7892500
 132.4870860  98.2544200  34.1088490 132.9087280  98.0884070  34.9519880
 132.6121700  97.4444430  33.6143630 130.6498280  94.2340750  46.9159470
 130.1194740  93.7431700  46.2882810 131.3186350  94.6624950  46.3817400
 134.9998500  97.2781810  31.3565590 135.5204160  96.5630830  30.9906740
 135.6466900  97.9167680  31.6566100 139.5476340  98.7010210  46.6800660
 139.9617360  98.8555290  47.5291080 138.6127340  98.8265430  46.8426440
 140.0198510  96.0406370  48.6839810 140.6019280  95.2858690  48.5960290
 140.1960280  96.5713810  47.9071290 131.1370580  91.2003120  46.9956760
 131.0427450  90.5823870  46.2707630 130.5567970  91.9269410  46.7686670
 133.9032020  89.7576360  44.0284150 133.4549320  89.7800620  43.1829700
 133.2697220  89.3595380  44.6254450 136.6455470  96.3846870  46.0334430
 136.7651680  95.7888010  46.7729270 137.5049470  96.4216560  45.6135730
 138.9843370  96.9384060  44.6096940 138.4578590  97.4626680  44.0062080
 139.3274710  97.5711450  45.2406670 131.3829760  94.3277430  31.0546650
 131.1818820  93.4644790  31.4159990 131.2121810  94.2410790  30.1168250
 133.4124240  92.9268220  47.2910250 134.0023930  92.6184070  47.9788070
 132.5944480  92.4547970  47.4470150 138.2317670  92.5434030  47.5243270
 137.5433190  91.8815570  47.4593260 138.9523690  92.0972300  47.9691730
 138.8618070  89.1385660  33.5833530 139.1420360  88.2953560  33.9392950
 138.0883800  89.3708770  34.0972280 130.1812560  91.4278050  31.0424530
 130.4838460  91.4345480  30.1343680 130.9207150  91.0775910  31.5392190
 133.3997490  90.3712670  32.0280730 133.0519490  89.6936660  31.4483180
 133.6010260  89.9102180  32.8424120 143.2398790  98.3762390  34.1937440
 144.0017700  98.9459040  34.2997130 143.2553160  97.8089590  34.9645750
 126.7403130  96.9000320  38.4245100 126.0851970  96.6311960  37.7804800
 127.5781080  96.7904800  37.9747080 139.6893570  91.6941610  32.6463590
 140.1078450  91.5072590  31.8060250 139.3829630  90.8420660  32.9566520
 143.1883300  96.6065750  36.3439390 142.8126900  95.8393680  35.9120680
 142.4586420  96.9888450  36.8314320 127.7779060  97.2852890  42.9648440
 128.1452100  97.1980290  43.8444460 127.2089880  96.5219440  42.8655300
 142.5782920  95.7537270  45.9778910 142.3469010  95.5250020  45.0776860
 142.8387470  96.6736820  45.9323800 127.3295060  94.1961980  46.8706860
 126.4351110  94.1628740  47.2100570 127.8692610  94.3948770  47.6358110
 141.0170990  90.9793700  48.7558610 141.8941170  90.9877100  49.1392610
 141.0291830  90.2424540  48.1450960 125.9541210  94.1099250  34.3670430
 125.0505290  94.3729450  34.1922090 126.4381830  94.3810420  33.5870390
 142.4634260  94.8323240  39.6446630 142.9871740  94.3385890  39.0136800
 143.0493680  94.9673600  40.3894200 142.6423980  94.9163110  43.1666180
 141.6926690  94.8826650  43.2811170 142.8236990  95.8263220  42.9315950
 128.4968420  93.1664790  32.2764810 129.2060120  92.7448010  31.7912090
 127.7808360  93.2340020  31.6448160 128.1442580  89.2204120  31.3167460
 128.8670710  89.7613060  31.6348680 128.4167100  88.9467540  30.4409000
 141.9534230  94.0896590  35.5839040 142.4493350  93.8567460  36.3687920
 141.7550300  93.2508430  35.1676680 127.8334770  88.4710310  41.2190080
 128.4810960  87.9207690  40.7785240 128.2536610  88.7253460  42.0405890
 143.3821390  92.7257540  38.1176720 143.2720670  92.5713580  39.0558990
 144.1428980  92.1978480  37.8752130 141.7287110  88.6651670  44.5759720
 142.3659330  89.2785810  44.9418910 141.8762000  88.7012330  43.6308950
 144.2711660  90.5565460  31.3582860 145.1960970  90.4246640  31.1501150
 144.2487450  90.6358280  32.3119310 144.3450150  91.3276120  33.9839570
 143.5501650  91.2621240  34.5132480 144.5493430  92.2626760  33.9724920
 127.5866770  88.6265980  43.9615400 127.2381590  89.0829800  44.7273580
 127.2554470  87.7323110  44.0437830 135.0991590  89.8177860  47.4834820
 135.0380480  90.4099690  48.2330230 136.0391970  89.7103820  47.3385080
 137.7366150  89.4747920  47.1227110 138.3506560  89.7927210  46.4608190
 138.2815710  88.9896510  47.7422970 128.2587410  88.1542180  47.2366170
 128.8070400  87.9730230  46.4732280 128.3242720  87.3636290  47.7722480
 138.4774190  88.0380060  43.4496400 137.6034030  88.3715170  43.2469330
 138.3684940  87.5653240  44.2748270 139.3846170  90.2450930  44.8338120
 139.0559530  89.4302690  44.4539850 140.3328470  90.2020740  44.7103810
 136.2249010  88.9549900  42.3889310 135.4420800  89.4295400  42.6686070
 135.9311940  88.0504730  42.2802490 140.7770080  89.6573000  40.4338400
 141.2178170  89.6018100  39.5860000 140.5077670  90.5731010  40.5048580
 142.6408650  89.2888240  38.4447220 142.5797050  88.3449460  38.2978240
 143.4200680  89.3968330  38.9900680 127.5689420  89.2597380  34.9103030
 128.3268780  89.3726260  34.3367060 127.1066590  90.0966580  34.8646460
 134.1103230  91.3736650  37.9005340 133.2977740  90.9993540  37.5601220
 134.6144870  90.6181730  38.2026530 138.6128210  88.0379100  39.1388410
 139.2157580  88.6099310  39.6136930 137.8721200  88.6018540  38.9162310
 141.7562810  88.4400660  34.4128690 141.9513440  89.3384110  34.6796120
 140.9692680  88.2087740  34.9061640 129.9414570  89.7861430  33.4505000
 130.4707330  88.9991230  33.3212950 130.5742890  90.4652620  33.6840530
 132.1352410  89.5236570  36.5050390 131.5055150  88.8223880  36.6720520
 131.5957550  90.2840700  36.2883550 132.2607970  88.8020550  48.9402880
 131.9792240  89.3054150  48.1763700 132.6427670  88.0042300  48.5745010
 138.8623430  88.2174130  49.5183350 138.7488880  88.5368740  50.4134870
 139.6793170  88.6186640  49.2220630 137.7681580  96.2366600  19.8818090
 137.6875630  95.3221210  19.6109800 137.3546000  96.7333670  19.1757800
 135.8999620  98.0145620  21.7627360 135.1241720  97.5346060  22.0525930
 136.5512550  97.3351270  21.5883520 129.9165450  98.3265430  22.6403120
 129.0850330  98.0714140  23.0399630 130.5246430  98.3976200  23.3761040
 128.3257400  93.2867320  16.4245510 127.4374100  93.6283290  16.3225390
 128.6098590  93.0867640  15.5326340 126.2890410  95.8872970  22.3085210
 126.8606520  95.1195170  22.3088850 126.2891950  96.1861730  21.3991820
 127.5315280  91.2957330  24.0954140 127.3518120  90.3983080  24.3756900
 127.1295360  91.8429200  24.7701090 136.3713780  93.4973190  21.9966450
 136.7478600  92.6245070  21.8840120 136.2733290  93.8331890  21.1056890
 130.5018790  91.8698820  17.4583890 130.6085540  92.7702550  17.7652650
 129.5911150  91.8216790  17.1678540 140.1537900  90.9923630  18.9294790
 140.9747520  90.5020200  18.9720270 140.1871980  91.5821290  19.6826630
 128.1501950  93.7917830  22.7036480 128.8312060  94.0556200  23.3223880
 127.8350000  92.9518700  23.0374490 132.3426520  94.8385190  21.7909070
 132.8504740  95.3366160  22.4314090 132.8739760  94.0620390  21.6148430
 144.4437450  93.0090380  25.4938420 143.7389620  93.3972090  24.9753530
 144.7095370  93.7040670  26.0959350 130.6262620  89.4783750  26.0572490
 130.6281060  89.9956140  25.2518390 129.7966930  89.0013930  26.0342420
 140.3899380  92.9324010  21.7022330 139.6854950  93.2208900  22.2825440
 140.7511540  93.7424120  21.3421890 130.3077950  91.1893710  24.0642940
 130.6494760  92.0335760  23.7696810 129.3693760  91.3377450  24.1808280
 143.4586300  92.3778800  22.0931540 142.5111210  92.4117780  22.2246970
 143.7836290  93.1917750  22.4780900 133.9905840  88.6775980  20.3887530
 134.2980820  88.1222870  19.6723030 133.0606540  88.8120440  20.2060520
 136.3786600  96.7424810  17.1247650 135.4515880  96.6762190  17.3536120
 136.5311420  97.6804940  17.0102890 136.3655680  93.0141810  14.1214810
 135.4259350  93.1755770  14.2067270 136.6838940  93.7327490  13.5750800
 142.8868440  97.6960330  24.0993840 142.0587070  97.7653420  23.6243970
 143.4818920  98.2814640  23.6309670 140.4083890  98.3045110  17.6282900
 139.7896310  97.9664660  16.9809200 140.3908340  97.6604870  18.3362090
 139.8510450  94.4829650  25.0448710 139.4381630  95.3083360  25.2988700
 139.1186400  93.8974690  24.8525070 131.9843240  97.2689550  19.9067380
 131.5800240  96.5566800  19.4113280 132.0706360  96.9242790  20.7955420
 130.6971860  94.0432760  23.6866420 131.2486450  94.1528100  22.9119670
 131.2115370  94.4170360  24.4021650 138.5848590  97.5431920  14.6355650
 139.0241870  96.7054350  14.4893470 139.2977010  98.1761320  14.7219790
 130.3714590  97.5652120  27.2971760 130.2322360  98.4374920  27.6659160
 129.4895950  97.2224930  27.1519700 142.1665730  88.7974730  12.9496690
 141.8538390  88.8901560  13.8495760 142.9278200  89.3755760  12.8994120
 128.6847870  96.1634530  17.4074030 128.5645470  96.8896620  16.7955300
 128.3748760  95.3937440  16.9301940 143.3767020  93.5346230  28.9270830
 142.7611290  94.0425900  28.3986290 143.0563440  92.6344560  28.8696770
 131.1511530  89.5069600  20.7897700 130.7079680  90.2879140  20.4582220
 131.7096520  89.8299490  21.4968640 135.4381340  92.3738120  26.3933020
 134.9760710  92.5821140  27.2052960 135.0359450  91.5597470  26.0903690
 140.4385850  93.5947070  27.5229680 139.5879440  93.2952820  27.8438750
 140.2787640  93.8389080  26.6113500 137.5335560  95.0948820  29.6228470
 137.8588970  94.2612570  29.2830700 138.3215890  95.6177340  29.7706800
 134.2670350  89.1280300  15.6703530 133.6424530  89.1240170  16.3956840
 134.1800470  88.2611260  15.2739500 133.1887430  90.0516930  22.6487300
 133.4859760  90.9579760  22.5679320 133.7372990  89.5635710  22.0346870
 130.9425750  94.6303170  18.5178950 130.7166670  94.4140340  19.4225570
 130.1618280  95.0631630  18.1724920 138.1723510  94.6366540  17.1169600
 137.5732400  95.3602340  16.9333220 138.7203120  94.5743320  16.3346050
 133.3824960  95.5288750  29.1839220 133.2868560  94.5883480  29.0339620
 134.2256940  95.7503820  28.7887290 136.7788380  93.2730080  19.1472880
 137.1717950  93.5902280  18.3341570 137.1405230  92.3941960  19.2617400
 128.5135500  91.9402420  27.3373000 128.1198890  92.7877630  27.5445780
 127.8253900  91.3028790  27.5281640 135.0880550  92.0237390  30.4069740
 134.3978870  91.8309590  31.0415830 135.8312850  92.3072030  30.9394040
 125.8152550  89.8630880  21.3703080 125.5265600  90.4333740  22.0828060
 126.5598310  89.3835330  21.7334310 126.0022780  93.8051000  12.5805800
 125.9197450  94.7481760  12.7220790 125.6505840  93.6625910  11.7018150
 137.3643520  95.8635830  23.2423660 136.6324640  96.3722640  23.5913760
 136.9667860  95.0465810  22.9412440 133.8020910  92.5390030  21.6476150
 133.8056970  92.0979980  20.7980690 134.6972030  92.8607360  21.7547970
 129.6523290  92.4216520  20.6070360 129.3123340  92.8991750  21.3637410
 128.8900610  91.9681640  20.2471460 133.8641060  93.5402110  14.6382910
 133.9853880  93.4988590  15.5868730 133.4789570  94.4026260  14.4829640
 137.8269430  91.3169510  22.6546600 137.8442170  91.7678160  23.4988450
 137.5785010  90.4175150  22.8680040 132.8762560  95.8503250  14.0366210
 132.3079460  95.4021500  13.4102120 133.5851560  96.2096030  13.5031360
 141.2540180  88.7301690  28.4932980 141.5785950  87.9991350  29.0190960
 141.2896690  88.4115330  27.5913970 134.1028880  96.5991810  23.3941560
 134.4699010  96.1250380  24.1402900 133.9133940  97.4733380  23.7349900
 126.9669370  91.3435500  19.5235030 126.6816290  90.9791170  20.3613650
 126.9048230  90.6115960  18.9098170 131.8928250  95.6400450  25.7125770
 131.5885320  96.5192430  25.9376130 132.8474710  95.7000240  25.7483210
 136.6407960  90.2364760  16.2448400 135.8272570  89.7377930  16.1693710
 136.4469910  91.0763010  15.8284750 139.3556350  94.6084410  14.5410560
 140.2435970  94.9201640  14.3661900 139.3261440  93.7356660  14.1491140
 127.9491980  96.4803190  26.8597130 127.5906920  97.1457040  27.4470470
 127.6546540  95.6486740  27.2309750 131.1505100  96.9387430  29.7436680
 130.8505240  97.0844610  28.8464500 131.9216340  96.3792720  29.6510070
 141.6270620  95.9196250  14.0090420 141.5434340  96.3510470  13.1586860
 142.3464810  96.3794600  14.4417240 142.7044760  98.3763770  27.0860390
 141.9792950  98.9692550  26.8889780 143.2320220  98.3687310  26.2873760
 126.4600030  96.4794450  13.4831730 127.3294880  96.7619250  13.7667650
 125.9690350  97.2930320  13.3680540 133.6234840  97.8667660  17.6040010
 134.0797620  98.6772910  17.8300200 133.2723050  97.5490800  18.4358500
 129.5246620  88.2105310  18.0762530 129.3961250  88.2023210  19.0247450
 128.7008640  88.5488400  17.7253540 126.5240550  89.9696430  27.5369230
 125.8099070  90.1693350  28.1421840 126.9435590  89.1936000  27.9084030
 138.0179330  92.4618740  25.2870680 138.3860150  91.6413950  25.6150250
 137.1577530  92.5220630  25.7026330 141.3841360  91.4175680  16.0958240
 140.7554520  91.5221350  15.3816470 140.8893280  91.6372460  16.8852120
 133.3525390  93.6961630  17.5116120 132.6441540  94.1647970  17.9529730
 133.6369870  93.0383640  18.1461310 134.9781320  95.1158330  25.5108650
 135.4766570  95.5904150  26.1760500 135.1204270  94.1921850  25.7178680
 137.3840820  90.4212290  18.9511910 137.2608600  90.4398420  18.0021420
 138.3325380  90.4691230  19.0710310 131.5560410  92.0046710  14.8866830
 132.4050940  92.4416860  14.8207020 131.1891680  92.3166970  15.7138890
 142.1848180  91.3326290  26.3537040 141.6821780  92.0731690  26.6930850
 143.0004840  91.7210290  26.0373830 140.4770190  96.5759470  19.7998400
 139.5360330  96.5909700  19.9746090 140.7914260  95.7895430  20.2458700
 130.4551830  98.2579070  13.3602360 131.2215100  98.1460430  13.9227790
 130.5326520  97.5617040  12.7079130 129.1498590  95.6904140  14.0435250
 129.2302180  94.7431650  14.1552650 130.0418340  96.0211020  14.1495910
 126.6769390  97.5119060  29.2791420 127.1808410  96.9326340  29.8507650
 125.9376810  97.7959290  29.8167790 128.7092470  95.6548650  30.1741490
 128.7497810  95.3562520  31.0826720 129.5637970  96.0556260  30.0149010
 132.4870860  98.2544200  15.3345000 132.9087280  98.0884070  16.1776390
 132.6121700  97.4444430  14.8400140 130.6498280  94.2340750  28.1415980
 130.1194740  93.7431700  27.5139320 131.3186350  94.6624950  27.6073910
 134.9998500  97.2781810  12.5822100 135.5204160  96.5630830  12.2163250
 135.6466900  97.9167680  12.8822610 139.5476340  98.7010210  27.9057170
 139.9617360  98.8555290  28.7547590 138.6127340  98.8265430  28.0682950
 140.0198510  96.0406370  29.9096320 140.6019280  95.2858690  29.8216800
 140.1960280  96.5713810  29.1327800 131.1370580  91.2003120  28.2213270
 131.0427450  90.5823870  27.4964140 130.5567970  91.9269410  27.9943180
 133.9032020  89.7576360  25.2540660 133.4549320  89.7800620  24.4086210
 133.2697220  89.3595380  25.8510960 136.6455470  96.3846870  27.2590940
 136.7651680  95.7888010  27.9985780 137.5049470  96.4216560  26.8392240
 138.9843370  96.9384060  25.8353450 138.4578590  97.4626680  25.2318590
 139.3274710  97.5711450  26.4663180 131.3829760  94.3277430  12.2803160
 131.1818820  93.4644790  12.6416500 131.2121810  94.2410790  11.3424760
 133.4124240  92.9268220  28.5166760 134.0023930  92.6184070  29.2044580
 132.5944480  92.4547970  28.6726660 138.2317670  92.5434030  28.7499780
 137.5433190  91.8815570  28.6849770 138.9523690  92.0972300  29.1948240
 138.8618070  89.1385660  14.8090040 139.1420360  88.2953560  15.1649460
 138.0883800  89.3708770  15.3228790 130.1812560  91.4278050  12.2681040
 130.4838460  91.4345480  11.3600190 130.9207150  91.0775910  12.7648700
 133.3997490  90.3712670  13.2537240 133.0519490  89.6936660  12.6739690
 133.6010260  89.9102180  14.0680630 143.2398790  98.3762390  15.4193950
 144.0017700  98.9459040  15.5253640 143.2553160  97.8089590  16.1902260
 126.7403130  96.9000320  19.6501610 126.0851970  96.6311960  19.0061310
 127.5781080  96.7904800  19.2003590 139.6893570  91.6941610  13.8720100
 140.1078450  91.5072590  13.0316760 139.3829630  90.8420660  14.1823030
 143.1883300  96.6065750  17.5695900 142.8126900  95.8393680  17.1377190
 142.4586420  96.9888450  18.0570830 127.7779060  97.2852890  24.1904950
 128.1452100  97.1980290  25.0700970 127.2089880  96.5219440  24.0911810
 142.5782920  95.7537270  27.2035420 142.3469010  95.5250020  26.3033370
 142.8387470  96.6736820  27.1580310 127.3295060  94.1961980  28.0963370
 126.4351110  94.1628740  28.4357080 127.8692610  94.3948770  28.8614620
 141.0170990  90.9793700  29.9815120 141.8941170  90.9877100  30.3649120
 141.0291830  90.2424540  29.3707470 125.9541210  94.1099250  15.5926940
 125.0505290  94.3729450  15.4178600 126.4381830  94.3810420  14.8126900
 142.4634260  94.8323240  20.8703140 142.9871740  94.3385890  20.2393310
 143.0493680  94.9673600  21.6150710 142.6423980  94.9163110  24.3922690
 141.6926690  94.8826650  24.5067680 142.8236990  95.8263220  24.1572460
 128.4968420  93.1664790  13.5021320 129.2060120  92.7448010  13.0168600
 127.7808360  93.2340020  12.8704670 128.1442580  89.2204120  12.5423970
 128.8670710  89.7613060  12.8605190 128.4167100  88.9467540  11.6665510
 141.9534230  94.0896590  16.8095550 142.4493350  93.8567460  17.5944430
 141.7550300  93.2508430  16.3933190 127.8334770  88.4710310  22.4446590
 128.4810960  87.9207690  22.0041750 128.2536610  88.7253460  23.2662400
 143.3821390  92.7257540  19.3433230 143.2720670  92.5713580  20.2815500
 144.1428980  92.1978480  19.1008640 141.7287110  88.6651670  25.8016230
 142.3659330  89.2785810  26.1675420 141.8762000  88.7012330  24.8565460
 144.2711660  90.5565460  12.5839370 145.1960970  90.4246640  12.3757660
 144.2487450  90.6358280  13.5375820 144.3450150  91.3276120  15.2096080
 143.5501650  91.2621240  15.7388990 144.5493430  92.2626760  15.1981430
 127.5866770  88.6265980  25.1871910 127.2381590  89.0829800  25.9530090
 127.2554470  87.7323110  25.2694340 135.0991590  89.8177860  28.7091330
 135.0380480  90.4099690  29.4586740 136.0391970  89.7103820  28.5641590
 137.7366150  89.4747920  28.3483620 138.3506560  89.7927210  27.6864700
 138.2815710  88.9896510  28.9679480 128.2587410  88.1542180  28.4622680
 128.8070400  87.9730230  27.6988790 128.3242720  87.3636290  28.9978990
 138.4774190  88.0380060  24.6752910 137.6034030  88.3715170  24.4725840
 138.3684940  87.5653240  25.5004780 139.3846170  90.2450930  26.0594630
 139.0559530  89.4302690  25.6796360 140.3328470  90.2020740  25.9360320
 136.2249010  88.9549900  23.6145820 135.4420800  89.4295400  23.8942580
 135.9311940  88.0504730  23.5059000 140.7770080  89.6573000  21.6594910
 141.2178170  89.6018100  20.8116510 140.5077670  90.5731010  21.7305090
 142.6408650  89.2888240  19.6703730 142.5797050  88.3449460  19.5234750
 143.4200680  89.3968330  20.2157190 127.5689420  89.2597380  16.1359540
 128.3268780  89.3726260  15.5623570 127.1066590  90.0966580  16.0902970
 134.1103230  91.3736650  19.1261850 133.2977740  90.9993540  18.7857730
 134.6144870  90.6181730  19.4283040 138.6128210  88.0379100  20.3644920
 139.2157580  88.6099310  20.8393440 137.8721200  88.6018540  20.1418820
 141.7562810  88.4400660  15.6385200 141.9513440  89.3384110  15.9052630
 140.9692680  88.2087740  16.1318150 129.9414570  89.7861430  14.6761510
 130.4707330  88.9991230  14.5469460 130.5742890  90.4652620  14.9097040
 132.1352410  89.5236570  17.7306900 131.5055150  88.8223880  17.8977030
 131.5957550  90.2840700  17.5140060 132.2607970  88.8020550  30.1659390
 131.9792240  89.3054150  29.4020210 132.6427670  88.0042300  29.8001520
 138.8623430  88.2174130  30.7439860 138.7488880  88.5368740  31.6391380
 139.6793170  88.6186640  30.4477140 135.8999620  98.0145620   2.9883870
 135.1241720  97.5346060   3.2782440 136.5512550  97.3351270   2.8140030
 129.9165450  98.3265430   3.8659630 129.0850330  98.0714140   4.2656140
 130.5246430  98.3976200   4.6017550 126.2890410  95.8872970   3.5341720
 126.8606520  95.1195170   3.5345360 126.2891950  96.1861730   2.6248330
 127.5315280  91.2957330   5.3210650 127.3518120  90.3983080   5.6013410
 127.1295360  91.8429200   5.9957600 136.3713780  93.4973190   3.2222960
 136.7478600  92.6245070   3.1096630 136.2733290  93.8331890   2.3313400
 128.1501950  93.7917830   3.9292990 128.8312060  94.0556200   4.5480390
 127.8350000  92.9518700   4.2631000 132.3426520  94.8385190   3.0165580
 132.8504740  95.3366160   3.6570600 132.8739760  94.0620390   2.8404940
 144.4437450  93.0090380   6.7194930 143.7389620  93.3972090   6.2010040
 144.7095370  93.7040670   7.3215860 130.6262620  89.4783750   7.2829000
 130.6281060  89.9956140   6.4774900 129.7966930  89.0013930   7.2598930
 140.3899380  92.9324010   2.9278840 139.6854950  93.2208900   3.5081950
 140.7511540  93.7424120   2.5678400 130.3077950  91.1893710   5.2899450
 130.6494760  92.0335760   4.9953320 129.3693760  91.3377450   5.4064790
 143.4586300  92.3778800   3.3188050 142.5111210  92.4117780   3.4503480
 143.7836290  93.1917750   3.7037410 142.8868440  97.6960330   5.3250350
 142.0587070  97.7653420   4.8500480 143.4818920  98.2814640   4.8566180
 139.8510450  94.4829650   6.2705220 139.4381630  95.3083360   6.5245210
 139.1186400  93.8974690   6.0781580 130.6971860  94.0432760   4.9122930
 131.2486450  94.1528100   4.1376180 131.2115370  94.4170360   5.6278160
 130.3714590  97.5652120   8.5228270 130.2322360  98.4374920   8.8915670
 129.4895950  97.2224930   8.3776210 143.3767020  93.5346230  10.1527340
 142.7611290  94.0425900   9.6242800 143.0563440  92.6344560  10.0953280
 131.1511530  89.5069600   2.0154210 130.7079680  90.2879140   1.6838730
 131.7096520  89.8299490   2.7225150 135.4381340  92.3738120   7.6189530
 134.9760710  92.5821140   8.4309470 135.0359450  91.5597470   7.3160200
 140.4385850  93.5947070   8.7486190 139.5879440  93.2952820   9.0695260
 140.2787640  93.8389080   7.8370010 137.5335560  95.0948820  10.8484980
 137.8588970  94.2612570  10.5087210 138.3215890  95.6177340  10.9963310
 133.1887430  90.0516930   3.8743810 133.4859760  90.9579760   3.7935830
 133.7372990  89.5635710   3.2603380 133.3824960  95.5288750  10.4095730
 133.2868560  94.5883480  10.2596130 134.2256940  95.7503820  10.0143800
 128.5135500  91.9402420   8.5629510 128.1198890  92.7877630   8.7702290
 127.8253900  91.3028790   8.7538150 135.0880550  92.0237390  11.6326250
 134.3978870  91.8309590  12.2672340 135.8312850  92.3072030  12.1650550
 125.8152550  89.8630880   2.5959590 125.5265600  90.4333740   3.3084570
 126.5598310  89.3835330   2.9590820 137.3643520  95.8635830   4.4680170
 136.6324640  96.3722640   4.8170270 136.9667860  95.0465810   4.1668950
 133.8020910  92.5390030   2.8732660 133.8056970  92.0979980   2.0237200
 134.6972030  92.8607360   2.9804480 129.6523290  92.4216520   1.8326870
 129.3123340  92.8991750   2.5893920 128.8900610  91.9681640   1.4727970
 137.8269430  91.3169510   3.8803110 137.8442170  91.7678160   4.7244960
 137.5785010  90.4175150   4.0936550 141.2540180  88.7301690   9.7189490
 141.5785950  87.9991350  10.2447470 141.2896690  88.4115330   8.8170480
 134.1028880  96.5991810   4.6198070 134.4699010  96.1250380   5.3659410
 133.9133940  97.4733380   4.9606410 131.8928250  95.6400450   6.9382280
 131.5885320  96.5192430   7.1632640 132.8474710  95.7000240   6.9739720
 127.9491980  96.4803190   8.0853640 127.5906920  97.1457040   8.6726980
 127.6546540  95.6486740   8.4566260 131.1505100  96.9387430  10.9693190
 130.8505240  97.0844610  10.0721010 131.9216340  96.3792720  10.8766580
 142.7044760  98.3763770   8.3116900 141.9792950  98.9692550   8.1146290
 143.2320220  98.3687310   7.5130270 126.5240550  89.9696430   8.7625740
 125.8099070  90.1693350   9.3678350 126.9435590  89.1936000   9.1340540
 138.0179330  92.4618740   6.5127190 138.3860150  91.6413950   6.8406760
 137.1577530  92.5220630   6.9282840 134.9781320  95.1158330   6.7365160
 135.4766570  95.5904150   7.4017010 135.1204270  94.1921850   6.9435190
 142.1848180  91.3326290   7.5793550 141.6821780  92.0731690   7.9187360
 143.0004840  91.7210290   7.2630340 126.6769390  97.5119060  10.5047930
 127.1808410  96.9326340  11.0764160 125.9376810  97.7959290  11.0424300
 128.7092470  95.6548650  11.3998000 128.7497810  95.3562520  12.3083230
 129.5637970  96.0556260  11.2405520 130.6498280  94.2340750   9.3672490
 130.1194740  93.7431700   8.7395830 131.3186350  94.6624950   8.8330420
 139.5476340  98.7010210   9.1313680 139.9617360  98.8555290   9.9804100
 138.6127340  98.8265430   9.2939460 140.0198510  96.0406370  11.1352830
 140.6019280  95.2858690  11.0473310 140.1960280  96.5713810  10.3584310
 131.1370580  91.2003120   9.4469780 131.0427450  90.5823870   8.7220650
 130.5567970  91.9269410   9.2199690 133.9032020  89.7576360   6.4797170
 133.4549320  89.7800620   5.6342720 133.2697220  89.3595380   7.0767470
 136.6455470  96.3846870   8.4847450 136.7651680  95.7888010   9.2242290
 137.5049470  96.4216560   8.0648750 138.9843370  96.9384060   7.0609960
 138.4578590  97.4626680   6.4575100 139.3274710  97.5711450   7.6919690
 133.4124240  92.9268220   9.7423270 134.0023930  92.6184070  10.4301090
 132.5944480  92.4547970   9.8983170 138.2317670  92.5434030   9.9756290
 137.5433190  91.8815570   9.9106280 138.9523690  92.0972300  10.4204750
 127.7779060  97.2852890   5.4161460 128.1452100  97.1980290   6.2957480
 127.2089880  96.5219440   5.3168320 142.5782920  95.7537270   8.4291930
 142.3469010  95.5250020   7.5289880 142.8387470  96.6736820   8.3836820
 127.3295060  94.1961980   9.3219880 126.4351110  94.1628740   9.6613590
 127.8692610  94.3948770  10.0871130 141.0170990  90.9793700  11.2071630
 141.8941170  90.9877100  11.5905630 141.0291830  90.2424540  10.5963980
 142.4634260  94.8323240   2.0959650 142.9871740  94.3385890   1.4649820
 143.0493680  94.9673600   2.8407220 142.6423980  94.9163110   5.6179200
 141.6926690  94.8826650   5.7324190 142.8236990  95.8263220   5.3828970
 127.8334770  88.4710310   3.6703100 128.4810960  87.9207690   3.2298260
 128.2536610  88.7253460   4.4918910 141.7287110  88.6651670   7.0272740
 142.3659330  89.2785810   7.3931930 141.8762000  88.7012330   6.0821970
 127.5866770  88.6265980   6.4128420 127.2381590  89.0829800   7.1786600
 127.2554470  87.7323110   6.4950850 137.7366150  89.4747920   9.5740130
 138.3506560  89.7927210   8.9121210 138.2815710  88.9896510  10.1935990
 128.2587410  88.1542180   9.6879190 128.8070400  87.9730230   8.9245300
 128.3242720  87.3636290  10.2235500 138.4774190  88.0380060   5.9009420
 137.6034030  88.3715170   5.6982350 138.3684940  87.5653240   6.7261290
 139.3846170  90.2450930   7.2851140 139.0559530  89.4302690   6.9052870
 140.3328470  90.2020740   7.1616830 136.2249010  88.9549900   4.8402330
 135.4420800  89.4295400   5.1199090 135.9311940  88.0504730   4.7315510
 140.7770080  89.6573000   2.8851420 141.2178170  89.6018100   2.0373020
 140.5077670  90.5731010   2.9561600 132.2607970  88.8020550  11.3915900
 131.9792240  89.3054150  10.6276720 132.6427670  88.0042300  11.0258030
 138.8623430  88.2174130  11.9696370 138.7488880  88.5368740  12.8647890
 139.6793170  88.6186640  11.6733650 137.7681580  77.4623110  57.4305070
 137.6875630  76.5477720  57.1596780 137.3546000  77.9590180  56.7244780
 135.8999620  79.2402130  59.3114340 135.1241720  78.7602570  59.6012910
 136.5512550  78.5607780  59.1370500 139.9207050  83.6462320  58.0913470
 139.4588580  82.8749560  58.4200640 140.7332600  83.6728390  58.5965920
 128.3257400  74.5123830  53.9732490 127.4374100  74.8539800  53.8712370
 128.6098590  74.3124150  53.0813320 126.2890410  77.1129480  59.8572190
 126.8606520  76.3451680  59.8575830 126.2891950  77.4118240  58.9478800
 136.1470360  85.9320330  57.7117460 135.5281800  86.3877830  57.1411900
 137.0022140  86.0871790  57.3107160 135.3408610  81.9159320  59.3184500
 135.2716890  80.9749260  59.1573630 136.1028470  82.0060730  59.8907070
 136.3713780  74.7229700  59.5453430 136.7478600  73.8501580  59.4327100
 136.2733290  75.0588400  58.6543870 130.5018790  73.0955330  55.0070870
 130.6085540  73.9959060  55.3139630 129.5911150  73.0473300  54.7165520
 140.1537900  72.2180140  56.4781770 140.9747520  71.7276710  56.5207250
 140.1871980  72.8077800  57.2313610 132.3426520  76.0641700  59.3396050
 132.8504740  76.5622670  59.9801070 132.8739760  75.2876900  59.1635410
 137.0133710  80.8159570  55.1049370 136.3950980  81.2809020  54.5412090
 137.5256960  81.5087050  55.5218880 140.3899380  74.1580520  59.2509310
 139.6854950  74.4465410  59.8312420 140.7511540  74.9680630  58.8908870
 126.3816910  81.5016100  52.4789000 126.0044890  81.9903200  51.7473900
 126.6389980  82.1741380  53.1095530 143.4586300  73.6035310  59.6418520
 142.5111210  73.6374290  59.7733950 143.7836290  74.4174260  60.0267880
 133.9905840  69.9032490  57.9374510 134.2980820  69.3479380  57.2210010
 133.0606540  70.0376950  57.7547500 139.5420900  85.6199780  60.2281970
 139.5548060  85.2162070  59.3604230 138.9896120  86.3947070  60.1243400
 140.8366320  82.3416000  55.3172140 140.7262650  81.3990330  55.4421560
 140.8334570  82.7031640  56.2034900 136.3786600  77.9681320  54.6734630
 135.4515880  77.9018700  54.9023100 136.5311420  78.9061450  54.5589870
 136.3655680  74.2398320  51.6701790 135.4259350  74.4012280  51.7554250
 136.6838940  74.9584000  51.1237780 140.4083890  79.5301620  55.1769880
 139.7896310  79.1921170  54.5296180 140.3908340  78.8861380  55.8849070
 131.9843240  78.4946060  57.4554360 131.5800240  77.7823310  56.9600260
 132.0706360  78.1499300  58.3442400 132.4524940  82.1813620  59.6193570
 132.1553230  81.5759090  58.9401350 133.4024760  82.2190930  59.5082930
 138.5848590  78.7688430  52.1842630 139.0241870  77.9310860  52.0380450
 139.2977010  79.4017830  52.2706770 136.6943970  83.7084500  56.1523870
 137.1339880  84.4508830  55.7379260 136.6330860  83.9511070  57.0762830
 142.1665730  70.0231240  50.4983670 141.8538390  70.1158070  51.3982740
 142.9278200  70.6012270  50.4481100 128.6847870  77.3891040  54.9561010
 128.5645470  78.1153130  54.3442280 128.3748760  76.6193950  54.4788920
 127.5680870  82.2606370  57.1735830 127.1608950  82.4020960  56.3189430
 128.4593880  81.9766530  56.9707040 139.3614150  86.6953620  53.5086880
 139.2015290  86.4056560  54.4068710 139.1960860  85.9193750  52.9732110
 131.8402530  86.4752150  55.2858500 131.6645010  85.5587690  55.0726300
 130.9858270  86.8339440  55.5256300 139.0640280  84.2041180  52.0684880
 138.3705440  84.2018470  51.4087160 139.8063140  83.7800500  51.6379050
 138.6290210  85.8303890  56.1433370 139.0847160  85.0493270  56.4571990
 138.9682730  86.5410710  56.6874550 131.1511530  70.7326110  58.3384680
 130.7079680  71.5135650  58.0069200 131.7096520  71.0556000  59.0455620
 134.2670350  70.3536810  53.2190510 133.6424530  70.3496680  53.9443820
 134.1800470  69.4867770  52.8226480 133.1887430  71.2773440  60.1974280
 133.4859760  72.1836270  60.1166300 133.7372990  70.7892220  59.5833850
 130.9425750  75.8559680  56.0665930 130.7166670  75.6396850  56.9712550
 130.1618280  76.2888140  55.7211900 138.1723510  75.8623050  54.6656580
 137.5732400  76.5858850  54.4820200 138.7203120  75.7999830  53.8833030
 136.7788380  74.4986590  56.6959860 137.1717950  74.8158790  55.8828550
 137.1405230  73.6198470  56.8104380 125.8152550  71.0887390  58.9190060
 125.5265600  71.6590250  59.6315040 126.5598310  70.6091840  59.2821290
 126.0022780  75.0307510  50.1292780 125.9197450  75.9738270  50.2707770
 125.6505840  74.8882420  49.2505130 133.8020910  73.7646540  59.1963130
 133.8056970  73.3236490  58.3467670 134.6972030  74.0863870  59.3034950
 129.6523290  73.6473030  58.1557340 129.3123340  74.1248260  58.9124390
 128.8900610  73.1938150  57.7958440 133.8641060  74.7658620  52.1869890
 133.9853880  74.7245100  53.1355710 133.4789570  75.6282770  52.0316620
 132.8762560  77.0759760  51.5853190 132.3079460  76.6278010  50.9589100
 133.5851560  77.4352540  51.0518340 126.9669370  72.5692010  57.0722010
 126.6816290  72.2047680  57.9100630 126.9048230  71.8372470  56.4585150
 130.4210040  81.0717950  53.8579600 129.6472300  80.5315570  53.6978320
 131.1504670  80.5524560  53.5197360 141.1798020  80.0683310  59.6505990
 141.8997140  80.5638600  59.2602100 140.9779840  79.3901200  59.0059860
 136.6407960  71.4621270  53.7935380 135.8272570  70.9634440  53.7180690
 136.4469910  72.3019520  53.3771730 139.3556350  75.8340920  52.0897540
 140.2435970  76.1458150  51.9148880 139.3261440  74.9613170  51.6978120
 130.4647440  80.7398330  57.4958410 130.9826110  79.9366590  57.4415300
 130.0131460  80.6777470  58.3375240 135.3516940  82.0064610  52.7685710
 135.6932640  82.7506840  52.2729030 134.5229650  82.3195730  53.1310540
 141.6270620  77.1452760  51.5577400 141.5434340  77.5766980  50.7073840
 142.3464810  77.6051110  51.9904220 142.6557870  83.9995020  54.2859530
 142.0134030  83.3450640  54.5603250 142.2688530  84.4050110  53.5100200
 138.2344350  81.3280450  58.1331220 138.5868170  80.7308580  57.4732590
 137.3506680  81.0024680  58.3039470 134.3207630  82.0878140  55.5401630
 135.0078760  82.6347350  55.9209220 133.5340050  82.6318870  55.5751240
 126.4600030  77.7050960  51.0318710 127.3294880  77.9875760  51.3154630
 125.9690350  78.5186830  50.9167520 133.6234840  79.0924170  55.1526990
 134.0797620  79.9029420  55.3787180 133.2723050  78.7747310  55.9845480
 129.5246620  69.4361820  55.6249510 129.3961250  69.4279720  56.5734430
 128.7008640  69.7744910  55.2740520 141.0455250  82.8911480  50.8235880
 140.8192830  82.1741920  51.4160520 140.6551450  82.6423920  49.9857630
 126.8271280  86.9178340  51.5980340 127.1868920  87.5167680  50.9437610
 126.6863620  87.4638230  52.3715370 140.6271500  80.8083420  52.4850040
 140.3393200  81.2696110  53.2727920 141.4223670  80.3481190  52.7534260
 132.8439900  84.3009540  52.4154010 132.8350000  85.0339230  51.7998520
 131.9238260  84.0541120  52.5080970 128.4446540  79.5224430  53.1600770
 127.8374490  80.2623330  53.1696070 128.9195890  79.6123790  52.3338970
 141.3841360  72.6432190  53.6445220 140.7554520  72.7477860  52.9303450
 140.8893280  72.8628970  54.4339100 135.8299500  84.3637780  51.0779200
 135.9311480  84.1601770  50.1481180 134.9301240  84.1096060  51.2826980
 133.3525390  74.9218140  55.0603100 132.6441540  75.3904480  55.5016710
 133.6369870  74.2640150  55.6948290 134.4717610  86.8824100  55.7726870
 134.7259110  86.8445490  54.8506240 133.5230090  86.7557430  55.7655120
 131.5560410  73.2303220  52.4353810 132.4050940  73.6673370  52.3694000
 131.1891680  73.5423480  53.2625870 140.4770190  77.8015980  57.3485380
 139.5360330  77.8166210  57.5233070 140.7914260  77.0151940  57.7945680
 130.4551830  79.4835580  50.9089340 131.2215100  79.3716940  51.4714770
 130.5326520  78.7873550  50.2566110 129.1498590  76.9160650  51.5922230
 129.2302180  75.9688160  51.7039630 130.0418340  77.2467530  51.6982890
 142.4795770  84.9724830  59.0239640 142.6043190  85.7956000  59.4963450
 143.3461330  84.7615560  58.6763790 129.9513300  87.0656040  58.6956770
 130.6875780  86.5171500  58.9665340 130.3354220  87.9312050  58.5562760
 126.8358780  83.1329610  54.5698280 125.9098560  83.3750750  54.5603690
 127.3015210  83.9603870  54.4483030 133.0615610  86.2386350  50.5182340
 133.8544220  86.5275180  50.0664130 132.5419960  85.8078520  49.8394820
 142.1145780  85.4656480  51.9419080 141.8287290  85.0521620  51.1273260
 141.9165330  86.3944190  51.8219600 133.5793010  81.4589760  50.3824690
 133.4743650  80.8442110  51.1086070 133.4117230  80.9355650  49.5987700
 132.4870860  79.4800710  52.8831980 132.9087280  79.3140580  53.7263370
 132.6121700  78.6700940  52.3887120 134.9998500  78.5038320  50.1309080
 135.5204160  77.7887340  49.7650230 135.6466900  79.1424190  50.4309590
 131.3829760  75.5533940  49.8290140 131.1818820  74.6901300  50.1903480
 131.2121810  75.4667300  48.8911740 138.8618070  70.3642170  52.3577020
 139.1420360  69.5210070  52.7136440 138.0883800  70.5965280  52.8715770
 130.1812560  72.6534560  49.8168020 130.4838460  72.6601990  48.9087170
 130.9207150  72.3032420  50.3135680 133.3997490  71.5969180  50.8024220
 133.0519490  70.9193170  50.2226670 133.6010260  71.1358690  51.6167610
 135.5646530  86.5849930  52.4210820 136.4597320  86.9234900  52.4429580
 135.5964160  85.8629340  51.7935100 129.2042690  81.9576980  50.6497820
 129.6417560  82.5006650  51.3055400 129.6890420  81.1323930  50.6594160
 126.4188490  84.7466010  58.1018080 126.7491500  83.8787070  57.8696720
 126.8479490  84.9524530  58.9323040 131.0150410  83.0775020  55.7620050
 130.7145950  82.9539990  56.6623960 130.9087900  82.2183610  55.3535780
 143.7842330  82.8571420  50.4646730 142.9535290  82.9248070  50.9353960
 143.9614160  83.7475540  50.1613590 143.2398790  79.6018900  52.9680930
 144.0017700  80.1715550  53.0740620 143.2553160  79.0346100  53.7389240
 126.7403130  78.1256830  57.1988590 126.0851970  77.8568470  56.5548290
 127.5781080  78.0161310  56.7490570 144.2458760  80.4569000  57.8122860
 144.6167590  79.6736320  57.4058830 144.8860690  81.1458100  57.6340160
 143.2917960  79.8953270  50.1253450 143.5666800  80.8032150  49.9972670
 143.1028700  79.8315800  51.0615440 139.6893570  72.9198120  51.4207080
 140.1078450  72.7329100  50.5803740 139.3829630  72.0677170  51.7310010
 143.1883300  77.8322260  55.1182880 142.8126900  77.0650190  54.6864170
 142.4586420  78.2144960  55.6057810 125.9541210  75.3355760  53.1413920
 125.0505290  75.5985960  52.9665580 126.4381830  75.6066930  52.3613880
 142.4634260  76.0579750  58.4190120 142.9871740  75.5642400  57.7880290
 143.0493680  76.1930110  59.1637690 128.4968420  74.3921300  51.0508300
 129.2060120  73.9704520  50.5655580 127.7808360  74.4596530  50.4191650
 128.1442580  70.4460630  50.0910950 128.8670710  70.9869570  50.4092170
 128.4167100  70.1724050  49.2152490 141.9534230  75.3153100  54.3582530
 142.4493350  75.0823970  55.1431410 141.7550300  74.4764940  53.9420170
 143.3821390  73.9514050  56.8920210 143.2720670  73.7970090  57.8302480
 144.1428980  73.4234990  56.6495620 144.2711660  71.7821970  50.1326350
 145.1960970  71.6503150  49.9244640 144.2487450  71.8614790  51.0862800
 144.3450150  72.5532630  52.7583060 143.5501650  72.4877750  53.2875970
 144.5493430  73.4883270  52.7468410 141.2868570  86.5924180  56.7521450
 141.8827640  86.2708750  56.0755870 141.5446720  86.1196000  57.5434720
 132.2676500  85.5507720  59.7567310 132.7841520  84.9395080  59.2315570
 132.9173880  86.0536500  60.2478320 140.7770080  70.8829510  59.2081890
 141.2178170  70.8274610  58.3603490 140.5077670  71.7987520  59.2792070
 142.6408650  70.5144750  57.2190710 142.5797050  69.5705970  57.0721730
 143.4200680  70.6224840  57.7644170 126.9461400  86.6537110  56.1814660
 126.7783440  86.0207790  56.8796550 126.0795910  86.8596510  55.8308850
 127.5689420  70.4853890  53.6846520 128.3268780  70.5982770  53.1110550
 127.1066590  71.3223090  53.6389950 134.1103230  72.5993160  56.6748830
 133.2977740  72.2250050  56.3344710 134.6144870  71.8438240  56.9770020
 138.6128210  69.2635610  57.9131900 139.2157580  69.8355820  58.3880420
 137.8721200  69.8275050  57.6905800 141.7562810  69.6657170  53.1872180
 141.9513440  70.5640620  53.4539610 140.9692680  69.4344250  53.6805130
 128.5524100  85.3470340  53.6264800 128.0271720  85.7278370  52.9226760
 128.4768680  85.9721110  54.3474510 129.9414570  71.0117940  52.2248490
 130.4707330  70.2247740  52.0956440 130.5742890  71.6909130  52.4584020
 132.1352410  70.7493080  55.2793880 131.5055150  70.0480390  55.4464010
 131.5957550  71.5097210  55.0627040 143.3089420  86.9057880  54.9478740
 143.4841610  86.2195620  54.3039660 142.6110990  87.4304930  54.5555410
 131.1517070  87.2952720  52.5014050 131.8835890  87.0112000  51.9537940
 131.4110740  87.0566000  53.3913430 130.3131860  83.4117450  52.5060380
 129.6840740  83.8802550  53.0546210 130.4279690  82.5666670  52.9406570
 137.7681580  77.4623110  38.6561580 137.6875630  76.5477720  38.3853290
 137.3546000  77.9590180  37.9501290 135.8999620  79.2402130  40.5370850
 135.1241720  78.7602570  40.8269420 136.5512550  78.5607780  40.3627010
 129.9165450  79.5521940  41.4146610 129.0850330  79.2970650  41.8143120
 130.5246430  79.6232710  42.1504530 139.9207050  83.6462320  39.3169980
 139.4588580  82.8749560  39.6457150 140.7332600  83.6728390  39.8222430
 129.8966710  83.5862030  41.6104630 130.1994750  82.6959770  41.4314850
 130.6410300  84.1432250  41.3826880 128.3257400  74.5123830  35.1989000
 127.4374100  74.8539800  35.0968880 128.6098590  74.3124150  34.3069830
 126.2890410  77.1129480  41.0828700 126.8606520  76.3451680  41.0832340
 126.2891950  77.4118240  40.1735310 136.1470360  85.9320330  38.9373970
 135.5281800  86.3877830  38.3668410 137.0022140  86.0871790  38.5363670
 135.3408610  81.9159320  40.5441010 135.2716890  80.9749260  40.3830140
 136.1028470  82.0060730  41.1163580 127.5315280  72.5213840  42.8697630
 127.3518120  71.6239590  43.1500390 127.1295360  73.0685710  43.5444580
 136.3713780  74.7229700  40.7709940 136.7478600  73.8501580  40.6583610
 136.2733290  75.0588400  39.8800380 130.5018790  73.0955330  36.2327380
 130.6085540  73.9959060  36.5396140 129.5911150  73.0473300  35.9422030
 140.1537900  72.2180140  37.7038280 140.9747520  71.7276710  37.7463760
 140.1871980  72.8077800  38.4570120 128.1501950  75.0174340  41.4779970
 128.8312060  75.2812710  42.0967370 127.8350000  74.1775210  41.8117980
 132.3426520  76.0641700  40.5652560 132.8504740  76.5622670  41.2057580
 132.8739760  75.2876900  40.3891920 144.4437450  74.2346890  44.2681910
 143.7389620  74.6228600  43.7497020 144.7095370  74.9297180  44.8702840
 130.6262620  70.7040260  44.8315980 130.6281060  71.2212650  44.0261880
 129.7966930  70.2270440  44.8085910 137.0133710  80.8159570  36.3305880
 136.3950980  81.2809020  35.7668600 137.5256960  81.5087050  36.7475390
 131.8765470  80.3435440  43.0089480 131.5434850  80.9704360  43.6510550
 132.0532150  80.8697320  42.2291150 140.3899380  74.1580520  40.4765820
 139.6854950  74.4465410  41.0568930 140.7511540  74.9680630  40.1165380
 130.3077950  72.4150220  42.8386430 130.6494760  73.2592270  42.5440300
 129.3693760  72.5633960  42.9551770 131.0884570  82.3116240  44.8238660
 131.7058570  82.9867320  44.5423110 130.2277690  82.7204220  44.7326160
 126.3816910  81.5016100  33.7045510 126.0044890  81.9903200  32.9730410
 126.6389980  82.1741380  34.3352040 142.0062160  83.7755650  42.7393300
 141.3225680  84.4454760  42.7309970 142.5456450  83.9736300  41.9738160
 143.4586300  73.6035310  40.8675030 142.5111210  73.6374290  40.9990460
 143.7836290  74.4174260  41.2524390 133.9905840  69.9032490  39.1631020
 134.2980820  69.3479380  38.4466520 133.0606540  70.0376950  38.9804010
 139.5420900  85.6199780  41.4538480 139.5548060  85.2162070  40.5860740
 138.9896120  86.3947070  41.3499910 140.8366320  82.3416000  36.5428650
 140.7262650  81.3990330  36.6678070 140.8334570  82.7031640  37.4291410
 138.9406340  80.5229620  42.7821090 139.3575130  80.3089730  41.9474550
 139.6646160  80.7802410  43.3529710 136.3786600  77.9681320  35.8991140
 135.4515880  77.9018700  36.1279610 136.5311420  78.9061450  35.7846380
 136.3655680  74.2398320  32.8958300 135.4259350  74.4012280  32.9810760
 136.6838940  74.9584000  32.3494290 142.8868440  78.9216840  42.8737330
 142.0587070  78.9909930  42.3987460 143.4818920  79.5071150  42.4053160
 140.4083890  79.5301620  36.4026390 139.7896310  79.1921170  35.7552690
 140.3908340  78.8861380  37.1105580 139.8510450  75.7086160  43.8192200
 139.4381630  76.5339870  44.0732190 139.1186400  75.1231200  43.6268560
 131.9843240  78.4946060  38.6810870 131.5800240  77.7823310  38.1856770
 132.0706360  78.1499300  39.5698910 132.4524940  82.1813620  40.8450080
 132.1553230  81.5759090  40.1657860 133.4024760  82.2190930  40.7339440
 130.6971860  75.2689270  42.4609910 131.2486450  75.3784610  41.6863160
 131.2115370  75.6426870  43.1765140 140.5410550  85.7545490  44.5073180
 140.0641110  86.5617680  44.3145790 139.8572340  85.1023820  44.6599390
 131.5443370  81.9195310  47.4957880 130.6471900  82.1435280  47.7431280
 131.5696240  82.0430250  46.5469280 138.5848590  78.7688430  33.4099140
 139.0241870  77.9310860  33.2636960 139.2977010  79.4017830  33.4963280
 130.3714590  78.7908630  46.0715250 130.2322360  79.6631430  46.4402650
 129.4895950  78.4481440  45.9263190 136.6943970  83.7084500  37.3780380
 137.1339880  84.4508830  36.9635770 136.6330860  83.9511070  38.3019340
 132.1694940  84.7330330  48.2800400 132.1410370  85.1373280  47.4128830
 132.0059910  83.8040690  48.1172000 142.1665730  70.0231240  31.7240180
 141.8538390  70.1158070  32.6239250 142.9278200  70.6012270  31.6737610
 128.6847870  77.3891040  36.1817520 128.5645470  78.1153130  35.5698790
 128.3748760  76.6193950  35.7045430 144.1209760  85.5157430  49.5764570
 144.5969480  85.9940320  50.2553650 144.7416920  85.4474920  48.8510070
 126.3233240  80.5606180  41.9886160 126.4013660  80.6954950  41.0441880
 126.9374920  79.8522070  42.1814280 127.5680870  82.2606370  38.3992340
 127.1608950  82.4020960  37.5445940 128.4593880  81.9766530  38.1963550
 143.5243010  82.7070280  46.7364580 143.6506070  82.4682160  45.8181760
 143.5664390  81.8754820  47.2086660 137.3859750  86.4098280  45.3059390
 137.9004420  86.3206290  46.1081820 136.5428830  86.7557980  45.5987300
 139.3614150  86.6953620  34.7343390 139.2015290  86.4056560  35.6325220
 139.1960860  85.9193750  34.1988620 131.8402530  86.4752150  36.5115010
 131.6645010  85.5587690  36.2982810 130.9858270  86.8339440  36.7512810
 139.0640280  84.2041180  33.2941390 138.3705440  84.2018470  32.6343670
 139.8063140  83.7800500  32.8635560 138.6290210  85.8303890  37.3689880
 139.0847160  85.0493270  37.6828500 138.9682730  86.5410710  37.9131060
 143.3767020  74.7602740  47.7014320 142.7611290  75.2682410  47.1729780
 143.0563440  73.8601070  47.6440260 126.3792760  81.6020350  44.5280620
 126.5423800  81.1325710  43.7099990 126.8445210  81.0943910  45.1929460
 131.1511530  70.7326110  39.5641190 130.7079680  71.5135650  39.2325710
 131.7096520  71.0556000  40.2712130 135.4381340  73.5994630  45.1676510
 134.9760710  73.8077650  45.9796450 135.0359450  72.7853980  44.8647180
 140.4385850  74.8203580  46.2973170 139.5879440  74.5209330  46.6182240
 140.2787640  75.0645590  45.3856990 137.5335560  76.3205330  48.3971960
 137.8588970  75.4869080  48.0574190 138.3215890  76.8433850  48.5450290
 134.2670350  70.3536810  34.4447020 133.6424530  70.3496680  35.1700330
 134.1800470  69.4867770  34.0482990 133.1887430  71.2773440  41.4230790
 133.4859760  72.1836270  41.3422810 133.7372990  70.7892220  40.8090360
 130.9425750  75.8559680  37.2922440 130.7166670  75.6396850  38.1969060
 130.1618280  76.2888140  36.9468410 138.1723510  75.8623050  35.8913090
 137.5732400  76.5858850  35.7076710 138.7203120  75.7999830  35.1089540
 136.7788380  74.4986590  37.9216370 137.1717950  74.8158790  37.1085060
 137.1405230  73.6198470  38.0360890 128.5135500  73.1658930  46.1116490
 128.1198890  74.0134140  46.3189270 127.8253900  72.5285300  46.3025130
 135.0880550  73.2493900  49.1813230 134.3978870  73.0566100  49.8159320
 135.8312850  73.5328540  49.7137530 125.8152550  71.0887390  40.1446570
 125.5265600  71.6590250  40.8571550 126.5598310  70.6091840  40.5077800
 126.0022780  75.0307510  31.3549290 125.9197450  75.9738270  31.4964280
 125.6505840  74.8882420  30.4761640 137.3643520  77.0892340  42.0167150
 136.6324640  77.5979150  42.3657250 136.9667860  76.2722320  41.7155930
 133.8020910  73.7646540  40.4219640 133.8056970  73.3236490  39.5724180
 134.6972030  74.0863870  40.5291460 129.6523290  73.6473030  39.3813850
 129.3123340  74.1248260  40.1380900 128.8900610  73.1938150  39.0214950
 133.8641060  74.7658620  33.4126400 133.9853880  74.7245100  34.3612220
 133.4789570  75.6282770  33.2573130 137.8269430  72.5426020  41.4290090
 137.8442170  72.9934670  42.2731940 137.5785010  71.6431660  41.6423530
 132.8762560  77.0759760  32.8109700 132.3079460  76.6278010  32.1845610
 133.5851560  77.4352540  32.2774850 141.2540180  69.9558200  47.2676470
 141.5785950  69.2247860  47.7934450 141.2896690  69.6371840  46.3657460
 127.9531740  80.9771780  46.6876430 127.5686530  80.3365450  47.2859390
 128.2643930  81.6807900  47.2571160 134.1028880  77.8248320  42.1685050
 134.4699010  77.3506890  42.9146390 133.9133940  78.6989890  42.5093390
 126.9669370  72.5692010  38.2978520 126.6816290  72.2047680  39.1357140
 126.9048230  71.8372470  37.6841660 131.8928250  76.8656960  44.4869260
 131.5885320  77.7448940  44.7119620 132.8474710  76.9256750  44.5226700
 130.4210040  81.0717950  35.0836110 129.6472300  80.5315570  34.9234830
 131.1504670  80.5524560  34.7453870 141.1798020  80.0683310  40.8762500
 141.8997140  80.5638600  40.4858610 140.9779840  79.3901200  40.2316370
 136.6407960  71.4621270  35.0191890 135.8272570  70.9634440  34.9437200
 136.4469910  72.3019520  34.6028240 136.5616820  80.1392370  46.7631500
 136.4954130  79.2188040  46.5089090 135.9321960  80.2367810  47.4776140
 139.3556350  75.8340920  33.3154050 140.2435970  76.1458150  33.1405390
 139.3261440  74.9613170  32.9234630 130.4647440  80.7398330  38.7214920
 130.9826110  79.9366590  38.6671810 130.0131460  80.6777470  39.5631750
 135.3516940  82.0064610  33.9942220 135.6932640  82.7506840  33.4985540
 134.5229650  82.3195730  34.3567050 127.9491980  77.7059700  45.6340620
 127.5906920  78.3713550  46.2213960 127.6546540  76.8743250  46.0053240
 131.1505100  78.1643940  48.5180170 130.8505240  78.3101120  47.6207990
 131.9216340  77.6049230  48.4253560 136.4933550  82.9612940  46.5135300
 136.5078090  82.0293900  46.2954210 135.7858650  83.0472700  47.1525070
 141.6270620  77.1452760  32.7833910 141.5434340  77.5766980  31.9330350
 142.3464810  77.6051110  33.2160730 142.7044760  79.6020280  45.8603880
 141.9792950  80.1949060  45.6633270 143.2320220  79.5943820  45.0617250
 142.6557870  83.9995020  35.5116040 142.0134030  83.3450640  35.7859760
 142.2688530  84.4050110  34.7356710 138.2344350  81.3280450  39.3587730
 138.5868170  80.7308580  38.6989100 137.3506680  81.0024680  39.5295980
 134.3207630  82.0878140  36.7658140 135.0078760  82.6347350  37.1465730
 133.5340050  82.6318870  36.8007750 126.4600030  77.7050960  32.2575220
 127.3294880  77.9875760  32.5411140 125.9690350  78.5186830  32.1424030
 133.6234840  79.0924170  36.3783500 134.0797620  79.9029420  36.6043690
 133.2723050  78.7747310  37.2101990 135.9267450  84.6030510  43.6075800
 136.5709670  84.8089890  44.2849220 136.2896890  83.8418910  43.1546650
 129.5246620  69.4361820  36.8506020 129.3961250  69.4279720  37.7990940
 128.7008640  69.7744910  36.4997030 137.1999530  82.6062860  42.3253250
 137.8421760  81.9056020  42.4385420 137.7248880  83.3861300  42.1450140
 141.0455250  82.8911480  32.0492390 140.8192830  82.1741920  32.6417030
 140.6551450  82.6423920  31.2114140 138.9737150  83.4057760  45.5289310
 139.3093390  83.9924450  46.2067230 138.0537490  83.2750470  45.7587100
 126.8271280  86.9178340  32.8236850 127.1868920  87.5167680  32.1694120
 126.6863620  87.4638230  33.5971880 126.5240550  71.1952940  46.3112720
 125.8099070  71.3949860  46.9165330 126.9435590  70.4192510  46.6827520
 140.6271500  80.8083420  33.7106550 140.3393200  81.2696110  34.4984430
 141.4223670  80.3481190  33.9790770 126.8113140  85.1833200  47.2979250
 126.9204260  84.2427940  47.1574640 126.1593700  85.4487950  46.6492980
 134.8025730  83.4549090  48.6977370 134.4822600  82.7358330  49.2423060
 134.1284090  84.1304160  48.7713430 132.8439900  84.3009540  33.6410520
 132.8350000  85.0339230  33.0255030 131.9238260  84.0541120  33.7337480
 128.4446540  79.5224430  34.3857280 127.8374490  80.2623330  34.3952580
 128.9195890  79.6123790  33.5595480 138.0179330  73.6875250  44.0614170
 138.3860150  72.8670460  44.3893740 137.1577530  73.7477140  44.4769820
 141.3841360  72.6432190  34.8701730 140.7554520  72.7477860  34.1559960
 140.8893280  72.8628970  35.6595610 135.8299500  84.3637780  32.3035710
 135.9311480  84.1601770  31.3737690 134.9301240  84.1096060  32.5083490
 133.3525390  74.9218140  36.2859610 132.6441540  75.3904480  36.7273220
 133.6369870  74.2640150  36.9204800 134.9781320  76.3414840  44.2852140
 135.4766570  76.8160660  44.9503990 135.1204270  75.4178360  44.4922170
 137.3840820  71.6468800  37.7255400 137.2608600  71.6654930  36.7764910
 138.3325380  71.6947740  37.8453800 134.4717610  86.8824100  36.9983380
 134.7259110  86.8445490  36.0762750 133.5230090  86.7557430  36.9911630
 131.5560410  73.2303220  33.6610320 132.4050940  73.6673370  33.5950510
 131.1891680  73.5423480  34.4882380 142.1848180  72.5582800  45.1280530
 141.6821780  73.2988200  45.4674340 143.0004840  72.9466800  44.8117320
 140.4770190  77.8015980  38.5741890 139.5360330  77.8166210  38.7489580
 140.7914260  77.0151940  39.0202190 130.4551830  79.4835580  32.1345850
 131.2215100  79.3716940  32.6971280 130.5326520  78.7873550  31.4822620
 129.1498590  76.9160650  32.8178740 129.2302180  75.9688160  32.9296140
 130.0418340  77.2467530  32.9239400 142.4795770  84.9724830  40.2496150
 142.6043190  85.7956000  40.7219960 143.3461330  84.7615560  39.9020300
 129.9513300  87.0656040  39.9213280 130.6875780  86.5171500  40.1921850
 130.3354220  87.9312050  39.7819270 128.9571580  86.2502110  49.1098860
 129.7584310  86.5714160  49.5234260 128.4423400  85.8897690  49.8318770
 133.0615610  86.2386350  31.7438850 133.8544220  86.5275180  31.2920640
 132.5419960  85.8078520  31.0651330 137.7936210  82.3581980  49.0574270
 137.1874370  82.3813580  48.3170020 137.4890320  81.6265020  49.5941520
 139.2236580  86.0862270  47.6683680 140.1758330  86.0020290  47.6183920
 139.0764800  86.7503980  48.3417470 142.1145780  85.4656480  33.1675590
 141.8287290  85.0521620  32.3529770 141.9165330  86.3944190  33.0476110
 126.6769390  78.7375570  48.0534910 127.1808410  78.1582850  48.6251140
 125.9376810  79.0215800  48.5911280 133.5793010  81.4589760  31.6081200
 133.4743650  80.8442110  32.3342580 133.4117230  80.9355650  30.8244210
 133.7307330  80.1446560  47.5870430 132.9653000  80.7131560  47.5025100
 133.9123290  79.8522770  46.6938660 136.8195740  80.5209790  32.2123190
 136.2705840  80.9679090  32.8565930 137.4415000  80.0159040  32.7360860
 140.8730680  81.8751890  48.1445450 141.6140150  82.2127650  47.6412910
 140.1103360  82.0443950  47.5915220 128.7092470  76.8805160  48.9484980
 128.7497810  76.5819030  49.8570210 129.5637970  77.2812770  48.7892500
 132.4870860  79.4800710  34.1088490 132.9087280  79.3140580  34.9519880
 132.6121700  78.6700940  33.6143630 130.6498280  75.4597260  46.9159470
 130.1194740  74.9688210  46.2882810 131.3186350  75.8881460  46.3817400
 134.9998500  78.5038320  31.3565590 135.5204160  77.7887340  30.9906740
 135.6466900  79.1424190  31.6566100 139.5476340  79.9266720  46.6800660
 139.9617360  80.0811800  47.5291080 138.6127340  80.0521940  46.8426440
 140.0198510  77.2662880  48.6839810 140.6019280  76.5115200  48.5960290
 140.1960280  77.7970320  47.9071290 131.1370580  72.4259630  46.9956760
 131.0427450  71.8080380  46.2707630 130.5567970  73.1525920  46.7686670
 133.9032020  70.9832870  44.0284150 133.4549320  71.0057130  43.1829700
 133.2697220  70.5851890  44.6254450 134.3091570  79.8787200  44.6496590
 134.7279680  80.7219930  44.4772830 133.3900200  80.0159240  44.4203370
 136.6455470  77.6103380  46.0334430 136.7651680  77.0144520  46.7729270
 137.5049470  77.6473070  45.6135730 138.9843370  78.1640570  44.6096940
 138.4578590  78.6883190  44.0062080 139.3274710  78.7967960  45.2406670
 131.3829760  75.5533940  31.0546650 131.1818820  74.6901300  31.4159990
 131.2121810  75.4667300  30.1168250 132.1598990  86.1840210  45.7654320
 131.6220080  86.9086270  45.4463020 132.4132950  85.7070550  44.9751660
 133.4124240  74.1524730  47.2910250 134.0023930  73.8440580  47.9788070
 132.5944480  73.6804480  47.4470150 138.2317670  73.7690540  47.5243270
 137.5433190  73.1072080  47.4593260 138.9523690  73.3228810  47.9691730
 138.8618070  70.3642170  33.5833530 139.1420360  69.5210070  33.9392950
 138.0883800  70.5965280  34.0972280 130.1812560  72.6534560  31.0424530
 130.4838460  72.6601990  30.1343680 130.9207150  72.3032420  31.5392190
 135.0161200  87.4191420  46.0240970 134.9419900  88.3226560  46.3313340
 134.1140040  87.1003320  45.9963040 133.3997490  71.5969180  32.0280730
 133.0519490  70.9193170  31.4483180 133.6010260  71.1358690  32.8424120
 135.5646530  86.5849930  33.6467330 136.4597320  86.9234900  33.6686090
 135.5964160  85.8629340  33.0191610 129.2042690  81.9576980  31.8754330
 129.6417560  82.5006650  32.5311910 129.6890420  81.1323930  31.8850670
 126.4188490  84.7466010  39.3274590 126.7491500  83.8787070  39.0953230
 126.8479490  84.9524530  40.1579550 131.0150410  83.0775020  36.9876560
 130.7145950  82.9539990  37.8880470 130.9087900  82.2183610  36.5792290
 126.9078700  85.6136600  42.0656220 126.4709690  85.7937400  42.8980370
 127.4756380  86.3711220  41.9237940 142.5440880  85.1153600  46.3533530
 141.9442870  85.1746160  45.6097450 142.6734780  84.1758580  46.4830380
 143.7842330  82.8571420  31.6903240 142.9535290  82.9248070  32.1610470
 143.9614160  83.7475540  31.3870100 143.2398790  79.6018900  34.1937440
 144.0017700  80.1715550  34.2997130 143.2553160  79.0346100  34.9645750
 126.7403130  78.1256830  38.4245100 126.0851970  77.8568470  37.7804800
 127.5781080  78.0161310  37.9747080 144.2458760  80.4569000  39.0379370
 144.6167590  79.6736320  38.6315340 144.8860690  81.1458100  38.8596670
 141.2292520  81.8405580  44.4509690 140.4152360  82.2702740  44.7135480
 141.6366720  82.4523990  43.8378740 143.2917960  79.8953270  31.3509960
 143.5666800  80.8032150  31.2229180 143.1028700  79.8315800  32.2871950
 139.6893570  72.9198120  32.6463590 140.1078450  72.7329100  31.8060250
 139.3829630  72.0677170  32.9566520 143.1883300  77.8322260  36.3439390
 142.8126900  77.0650190  35.9120680 142.4586420  78.2144960  36.8314320
 127.7779060  78.5109400  42.9648440 128.1452100  78.4236800  43.8444460
 127.2089880  77.7475950  42.8655300 142.5782920  76.9793780  45.9778910
 142.3469010  76.7506530  45.0776860 142.8387470  77.8993330  45.9323800
 127.3295060  75.4218490  46.8706860 126.4351110  75.3885250  47.2100570
 127.8692610  75.6205280  47.6358110 141.0170990  72.2050210  48.7558610
 141.8941170  72.2133610  49.1392610 141.0291830  71.4681050  48.1450960
 125.9541210  75.3355760  34.3670430 125.0505290  75.5985960  34.1922090
 126.4381830  75.6066930  33.5870390 142.4634260  76.0579750  39.6446630
 142.9871740  75.5642400  39.0136800 143.0493680  76.1930110  40.3894200
 142.6423980  76.1419620  43.1666180 141.6926690  76.1083160  43.2811170
 142.8236990  77.0519730  42.9315950 128.4968420  74.3921300  32.2764810
 129.2060120  73.9704520  31.7912090 127.7808360  74.4596530  31.6448160
 128.1442580  70.4460630  31.3167460 128.8670710  70.9869570  31.6348680
 128.4167100  70.1724050  30.4409000 141.9534230  75.3153100  35.5839040
 142.4493350  75.0823970  36.3687920 141.7550300  74.4764940  35.1676680
 127.8334770  69.6966820  41.2190080 128.4810960  69.1464200  40.7785240
 128.2536610  69.9509970  42.0405890 143.3821390  73.9514050  38.1176720
 143.2720670  73.7970090  39.0558990 144.1428980  73.4234990  37.8752130
 141.7287110  69.8908180  44.5759720 142.3659330  70.5042320  44.9418910
 141.8762000  69.9268840  43.6308950 144.2711660  71.7821970  31.3582860
 145.1960970  71.6503150  31.1501150 144.2487450  71.8614790  32.3119310
 144.3450150  72.5532630  33.9839570 143.5501650  72.4877750  34.5132480
 144.5493430  73.4883270  33.9724920 141.2868570  86.5924180  37.9777960
 141.8827640  86.2708750  37.3012380 141.5446720  86.1196000  38.7691230
 127.5866770  69.8522490  43.9615400 127.2381590  70.3086310  44.7273580
 127.2554470  68.9579620  44.0437830 129.1931140  83.0242090  48.1268590
 129.1500770  82.6535000  49.0083050 129.3242150  83.9619660  48.2670410
 132.8937170  84.5801680  43.7278310 132.6528530  84.8476240  42.8408830
 133.8339810  84.7507410  43.7829170 135.0991590  71.0434370  47.4834820
 135.0380480  71.6356200  48.2330230 136.0391970  70.9360330  47.3385080
 137.7366150  70.7004430  47.1227110 138.3506560  71.0183720  46.4608190
 138.2815710  70.2153020  47.7422970 144.1541330  86.5996060  44.5288950
 143.6599610  86.9964930  43.8116080 143.5454620  85.9745270  44.9226230
 128.2587410  69.3798690  47.2366170 128.8070400  69.1986740  46.4732280
 128.3242720  68.5892800  47.7722480 129.0319170  85.9704340  45.2466370
 128.4379490  85.8389040  45.9856410 129.0243010  85.1342480  44.7808470
 138.4774190  69.2636570  43.4496400 137.6034030  69.5971680  43.2469330
 138.3684940  68.7909750  44.2748270 139.3846170  71.4707440  44.8338120
 139.0559530  70.6559200  44.4539850 140.3328470  71.4277250  44.7103810
 141.8380780  87.2419480  41.8075690 141.3783750  87.9935290  41.4333710
 141.2093240  86.5225950  41.7490490 128.6631400  83.3362720  44.1974410
 127.9365460  82.7168010  44.1300360 128.7240550  83.7303330  43.3272490
 132.2676500  85.5507720  40.9823820 132.7841520  84.9395080  40.4572080
 132.9173880  86.0536500  41.4734830 135.0072000  86.4416210  41.8092800
 135.2949810  86.1870510  40.9325810 135.5195220  85.8893570  42.3998370
 136.2249010  70.1806410  42.3889310 135.4420800  70.6551910  42.6686070
 135.9311940  69.2761240  42.2802490 140.7770080  70.8829510  40.4338400
 141.2178170  70.8274610  39.5860000 140.5077670  71.7987520  40.5048580
 142.6408650  70.5144750  38.4447220 142.5797050  69.5705970  38.2978240
 143.4200680  70.6224840  38.9900680 126.9461400  86.6537110  37.4071170
 126.7783440  86.0207790  38.1053060 126.0795910  86.8596510  37.0565360
 127.5689420  70.4853890  34.9103030 128.3268780  70.5982770  34.3367060
 127.1066590  71.3223090  34.8646460 134.1103230  72.5993160  37.9005340
 133.2977740  72.2250050  37.5601220 134.6144870  71.8438240  38.2026530
 138.6128210  69.2635610  39.1388410 139.2157580  69.8355820  39.6136930
 137.8721200  69.8275050  38.9162310 141.7562810  69.6657170  34.4128690
 141.9513440  70.5640620  34.6796120 140.9692680  69.4344250  34.9061640
 128.5524100  85.3470340  34.8521310 128.0271720  85.7278370  34.1483270
 128.4768680  85.9721110  35.5731020 129.9414570  71.0117940  33.4505000
 130.4707330  70.2247740  33.3212950 130.5742890  71.6909130  33.6840530
 132.1352410  70.7493080  36.5050390 131.5055150  70.0480390  36.6720520
 131.5957550  71.5097210  36.2883550 135.0744360  87.3632310  49.1761000
 136.0011670  87.1276580  49.2196960 135.0594790  88.1904310  48.6947030
 143.3089420  86.9057880  36.1735250 143.4841610  86.2195620  35.5296170
 142.6110990  87.4304930  35.7811920 132.2607970  70.0277060  48.9402880
 131.9792240  70.5310660  48.1763700 132.6427670  69.2298810  48.5745010
 131.1517070  87.2952720  33.7270560 131.8835890  87.0112000  33.1794450
 131.4110740  87.0566000  34.6169940 130.3131860  83.4117450  33.7316890
 129.6840740  83.8802550  34.2802720 130.4279690  82.5666670  34.1663080
 138.8623430  69.4430640  49.5183350 138.7488880  69.7625250  50.4134870
 139.6793170  69.8443150  49.2220630 141.6421920  86.5902170  49.0002040
 142.4347240  86.0951400  48.7928000 141.9355070  87.2692310  49.6077650
 137.7681580  77.4623110  19.8818090 137.6875630  76.5477720  19.6109800
 137.3546000  77.9590180  19.1757800 135.8999620  79.2402130  21.7627360
 135.1241720  78.7602570  22.0525930 136.5512550  78.5607780  21.5883520
 129.9165450  79.5521940  22.6403120 129.0850330  79.2970650  23.0399630
 130.5246430  79.6232710  23.3761040 139.9207050  83.6462320  20.5426490
 139.4588580  82.8749560  20.8713660 140.7332600  83.6728390  21.0478940
 129.8966710  83.5862030  22.8361140 130.1994750  82.6959770  22.6571360
 130.6410300  84.1432250  22.6083390 128.3257400  74.5123830  16.4245510
 127.4374100  74.8539800  16.3225390 128.6098590  74.3124150  15.5326340
 126.2890410  77.1129480  22.3085210 126.8606520  76.3451680  22.3088850
 126.2891950  77.4118240  21.3991820 136.1470360  85.9320330  20.1630480
 135.5281800  86.3877830  19.5924920 137.0022140  86.0871790  19.7620180
 135.3408610  81.9159320  21.7697520 135.2716890  80.9749260  21.6086650
 136.1028470  82.0060730  22.3420090 127.5315280  72.5213840  24.0954140
 127.3518120  71.6239590  24.3756900 127.1295360  73.0685710  24.7701090
 136.3713780  74.7229700  21.9966450 136.7478600  73.8501580  21.8840120
 136.2733290  75.0588400  21.1056890 130.5018790  73.0955330  17.4583890
 130.6085540  73.9959060  17.7652650 129.5911150  73.0473300  17.1678540
 140.1537900  72.2180140  18.9294790 140.9747520  71.7276710  18.9720270
 140.1871980  72.8077800  19.6826630 128.1501950  75.0174340  22.7036480
 128.8312060  75.2812710  23.3223880 127.8350000  74.1775210  23.0374490
 132.3426520  76.0641700  21.7909070 132.8504740  76.5622670  22.4314090
 132.8739760  75.2876900  21.6148430 144.4437450  74.2346890  25.4938420
 143.7389620  74.6228600  24.9753530 144.7095370  74.9297180  26.0959350
 130.6262620  70.7040260  26.0572490 130.6281060  71.2212650  25.2518390
 129.7966930  70.2270440  26.0342420 137.0133710  80.8159570  17.5562390
 136.3950980  81.2809020  16.9925110 137.5256960  81.5087050  17.9731900
 131.8765470  80.3435440  24.2345990 131.5434850  80.9704360  24.8767060
 132.0532150  80.8697320  23.4547660 140.3899380  74.1580520  21.7022330
 139.6854950  74.4465410  22.2825440 140.7511540  74.9680630  21.3421890
 130.3077950  72.4150220  24.0642940 130.6494760  73.2592270  23.7696810
 129.3693760  72.5633960  24.1808280 131.0884570  82.3116240  26.0495170
 131.7058570  82.9867320  25.7679620 130.2277690  82.7204220  25.9582670
 126.3816910  81.5016100  14.9302020 126.0044890  81.9903200  14.1986920
 126.6389980  82.1741380  15.5608550 143.4586300  73.6035310  22.0931540
 142.5111210  73.6374290  22.2246970 143.7836290  74.4174260  22.4780900
 133.9905840  69.9032490  20.3887530 134.2980820  69.3479380  19.6723030
 133.0606540  70.0376950  20.2060520 139.5420900  85.6199780  22.6794990
 139.5548060  85.2162070  21.8117250 138.9896120  86.3947070  22.5756420
 140.8366320  82.3416000  17.7685160 140.7262650  81.3990330  17.8934580
 140.8334570  82.7031640  18.6547920 138.9406340  80.5229620  24.0077600
 139.3575130  80.3089730  23.1731060 139.6646160  80.7802410  24.5786220
 136.3786600  77.9681320  17.1247650 135.4515880  77.9018700  17.3536120
 136.5311420  78.9061450  17.0102890 136.3655680  74.2398320  14.1214810
 135.4259350  74.4012280  14.2067270 136.6838940  74.9584000  13.5750800
 142.8868440  78.9216840  24.0993840 142.0587070  78.9909930  23.6243970
 143.4818920  79.5071150  23.6309670 140.4083890  79.5301620  17.6282900
 139.7896310  79.1921170  16.9809200 140.3908340  78.8861380  18.3362090
 139.8510450  75.7086160  25.0448710 139.4381630  76.5339870  25.2988700
 139.1186400  75.1231200  24.8525070 131.9843240  78.4946060  19.9067380
 131.5800240  77.7823310  19.4113280 132.0706360  78.1499300  20.7955420
 132.4524940  82.1813620  22.0706590 132.1553230  81.5759090  21.3914370
 133.4024760  82.2190930  21.9595950 130.6971860  75.2689270  23.6866420
 131.2486450  75.3784610  22.9119670 131.2115370  75.6426870  24.4021650
 140.5410550  85.7545490  25.7329690 140.0641110  86.5617680  25.5402300
 139.8572340  85.1023820  25.8855900 131.5443370  81.9195310  28.7214390
 130.6471900  82.1435280  28.9687790 131.5696240  82.0430250  27.7725790
 138.5848590  78.7688430  14.6355650 139.0241870  77.9310860  14.4893470
 139.2977010  79.4017830  14.7219790 130.3714590  78.7908630  27.2971760
 130.2322360  79.6631430  27.6659160 129.4895950  78.4481440  27.1519700
 136.6943970  83.7084500  18.6036890 137.1339880  84.4508830  18.1892280
 136.6330860  83.9511070  19.5275850 132.1694940  84.7330330  29.5056910
 132.1410370  85.1373280  28.6385340 132.0059910  83.8040690  29.3428510
 142.1665730  70.0231240  12.9496690 141.8538390  70.1158070  13.8495760
 142.9278200  70.6012270  12.8994120 128.6847870  77.3891040  17.4074030
 128.5645470  78.1153130  16.7955300 128.3748760  76.6193950  16.9301940
 144.1209760  85.5157430  30.8021080 144.5969480  85.9940320  31.4810160
 144.7416920  85.4474920  30.0766580 126.3233240  80.5606180  23.2142670
 126.4013660  80.6954950  22.2698390 126.9374920  79.8522070  23.4070790
 127.5680870  82.2606370  19.6248850 127.1608950  82.4020960  18.7702450
 128.4593880  81.9766530  19.4220060 143.5243010  82.7070280  27.9621090
 143.6506070  82.4682160  27.0438270 143.5664390  81.8754820  28.4343170
 137.3859750  86.4098280  26.5315900 137.9004420  86.3206290  27.3338330
 136.5428830  86.7557980  26.8243810 139.3614150  86.6953620  15.9599900
 139.2015290  86.4056560  16.8581730 139.1960860  85.9193750  15.4245130
 131.8402530  86.4752150  17.7371520 131.6645010  85.5587690  17.5239320
 130.9858270  86.8339440  17.9769320 139.0640280  84.2041180  14.5197900
 138.3705440  84.2018470  13.8600180 139.8063140  83.7800500  14.0892070
 138.6290210  85.8303890  18.5946390 139.0847160  85.0493270  18.9085010
 138.9682730  86.5410710  19.1387570 143.3767020  74.7602740  28.9270830
 142.7611290  75.2682410  28.3986290 143.0563440  73.8601070  28.8696770
 126.3792760  81.6020350  25.7537130 126.5423800  81.1325710  24.9356500
 126.8445210  81.0943910  26.4185970 131.1511530  70.7326110  20.7897700
 130.7079680  71.5135650  20.4582220 131.7096520  71.0556000  21.4968640
 135.4381340  73.5994630  26.3933020 134.9760710  73.8077650  27.2052960
 135.0359450  72.7853980  26.0903690 140.4385850  74.8203580  27.5229680
 139.5879440  74.5209330  27.8438750 140.2787640  75.0645590  26.6113500
 137.5335560  76.3205330  29.6228470 137.8588970  75.4869080  29.2830700
 138.3215890  76.8433850  29.7706800 134.2670350  70.3536810  15.6703530
 133.6424530  70.3496680  16.3956840 134.1800470  69.4867770  15.2739500
 133.1887430  71.2773440  22.6487300 133.4859760  72.1836270  22.5679320
 133.7372990  70.7892220  22.0346870 130.9425750  75.8559680  18.5178950
 130.7166670  75.6396850  19.4225570 130.1618280  76.2888140  18.1724920
 138.1723510  75.8623050  17.1169600 137.5732400  76.5858850  16.9333220
 138.7203120  75.7999830  16.3346050 133.3824960  76.7545260  29.1839220
 133.2868560  75.8139990  29.0339620 134.2256940  76.9760330  28.7887290
 136.7788380  74.4986590  19.1472880 137.1717950  74.8158790  18.3341570
 137.1405230  73.6198470  19.2617400 128.5135500  73.1658930  27.3373000
 128.1198890  74.0134140  27.5445780 127.8253900  72.5285300  27.5281640
 135.0880550  73.2493900  30.4069740 134.3978870  73.0566100  31.0415830
 135.8312850  73.5328540  30.9394040 125.8152550  71.0887390  21.3703080
 125.5265600  71.6590250  22.0828060 126.5598310  70.6091840  21.7334310
 126.0022780  75.0307510  12.5805800 125.9197450  75.9738270  12.7220790
 125.6505840  74.8882420  11.7018150 137.3643520  77.0892340  23.2423660
 136.6324640  77.5979150  23.5913760 136.9667860  76.2722320  22.9412440
 133.8020910  73.7646540  21.6476150 133.8056970  73.3236490  20.7980690
 134.6972030  74.0863870  21.7547970 129.6523290  73.6473030  20.6070360
 129.3123340  74.1248260  21.3637410 128.8900610  73.1938150  20.2471460
 133.8641060  74.7658620  14.6382910 133.9853880  74.7245100  15.5868730
 133.4789570  75.6282770  14.4829640 137.8269430  72.5426020  22.6546600
 137.8442170  72.9934670  23.4988450 137.5785010  71.6431660  22.8680040
 132.8762560  77.0759760  14.0366210 132.3079460  76.6278010  13.4102120
 133.5851560  77.4352540  13.5031360 141.2540180  69.9558200  28.4932980
 141.5785950  69.2247860  29.0190960 141.2896690  69.6371840  27.5913970
 127.9531740  80.9771780  27.9132940 127.5686530  80.3365450  28.5115900
 128.2643930  81.6807900  28.4827670 134.1028880  77.8248320  23.3941560
 134.4699010  77.3506890  24.1402900 133.9133940  78.6989890  23.7349900
 126.9669370  72.5692010  19.5235030 126.6816290  72.2047680  20.3613650
 126.9048230  71.8372470  18.9098170 131.8928250  76.8656960  25.7125770
 131.5885320  77.7448940  25.9376130 132.8474710  76.9256750  25.7483210
 130.4210040  81.0717950  16.3092620 129.6472300  80.5315570  16.1491340
 131.1504670  80.5524560  15.9710380 141.1798020  80.0683310  22.1019010
 141.8997140  80.5638600  21.7115120 140.9779840  79.3901200  21.4572880
 136.6407960  71.4621270  16.2448400 135.8272570  70.9634440  16.1693710
 136.4469910  72.3019520  15.8284750 136.5616820  80.1392370  27.9888010
 136.4954130  79.2188040  27.7345600 135.9321960  80.2367810  28.7032650
 139.3556350  75.8340920  14.5410560 140.2435970  76.1458150  14.3661900
 139.3261440  74.9613170  14.1491140 130.4647440  80.7398330  19.9471430
 130.9826110  79.9366590  19.8928320 130.0131460  80.6777470  20.7888260
 135.3516940  82.0064610  15.2198730 135.6932640  82.7506840  14.7242050
 134.5229650  82.3195730  15.5823560 127.9491980  77.7059700  26.8597130
 127.5906920  78.3713550  27.4470470 127.6546540  76.8743250  27.2309750
 131.1505100  78.1643940  29.7436680 130.8505240  78.3101120  28.8464500
 131.9216340  77.6049230  29.6510070 136.4933550  82.9612940  27.7391810
 136.5078090  82.0293900  27.5210720 135.7858650  83.0472700  28.3781580
 141.6270620  77.1452760  14.0090420 141.5434340  77.5766980  13.1586860
 142.3464810  77.6051110  14.4417240 142.7044760  79.6020280  27.0860390
 141.9792950  80.1949060  26.8889780 143.2320220  79.5943820  26.2873760
 142.6557870  83.9995020  16.7372550 142.0134030  83.3450640  17.0116270
 142.2688530  84.4050110  15.9613220 138.2344350  81.3280450  20.5844240
 138.5868170  80.7308580  19.9245610 137.3506680  81.0024680  20.7552490
 134.3207630  82.0878140  17.9914650 135.0078760  82.6347350  18.3722240
 133.5340050  82.6318870  18.0264260 126.4600030  77.7050960  13.4831730
 127.3294880  77.9875760  13.7667650 125.9690350  78.5186830  13.3680540
 133.6234840  79.0924170  17.6040010 134.0797620  79.9029420  17.8300200
 133.2723050  78.7747310  18.4358500 135.9267450  84.6030510  24.8332310
 136.5709670  84.8089890  25.5105730 136.2896890  83.8418910  24.3803160
 129.5246620  69.4361820  18.0762530 129.3961250  69.4279720  19.0247450
 128.7008640  69.7744910  17.7253540 137.1999530  82.6062860  23.5509760
 137.8421760  81.9056020  23.6641930 137.7248880  83.3861300  23.3706650
 141.0455250  82.8911480  13.2748900 140.8192830  82.1741920  13.8673540
 140.6551450  82.6423920  12.4370650 138.9737150  83.4057760  26.7545820
 139.3093390  83.9924450  27.4323740 138.0537490  83.2750470  26.9843610
 126.8271280  86.9178340  14.0493360 127.1868920  87.5167680  13.3950630
 126.6863620  87.4638230  14.8228390 126.5240550  71.1952940  27.5369230
 125.8099070  71.3949860  28.1421840 126.9435590  70.4192510  27.9084030
 140.6271500  80.8083420  14.9363060 140.3393200  81.2696110  15.7240940
 141.4223670  80.3481190  15.2047280 126.8113140  85.1833200  28.5235760
 126.9204260  84.2427940  28.3831150 126.1593700  85.4487950  27.8749490
 134.8025730  83.4549090  29.9233880 134.4822600  82.7358330  30.4679570
 134.1284090  84.1304160  29.9969940 132.8439900  84.3009540  14.8667030
 132.8350000  85.0339230  14.2511540 131.9238260  84.0541120  14.9593990
 128.4446540  79.5224430  15.6113790 127.8374490  80.2623330  15.6209090
 128.9195890  79.6123790  14.7851990 138.0179330  73.6875250  25.2870680
 138.3860150  72.8670460  25.6150250 137.1577530  73.7477140  25.7026330
 141.3841360  72.6432190  16.0958240 140.7554520  72.7477860  15.3816470
 140.8893280  72.8628970  16.8852120 135.8299500  84.3637780  13.5292220
 135.9311480  84.1601770  12.5994200 134.9301240  84.1096060  13.7340000
 133.3525390  74.9218140  17.5116120 132.6441540  75.3904480  17.9529730
 133.6369870  74.2640150  18.1461310 134.9781320  76.3414840  25.5108650
 135.4766570  76.8160660  26.1760500 135.1204270  75.4178360  25.7178680
 137.3840820  71.6468800  18.9511910 137.2608600  71.6654930  18.0021420
 138.3325380  71.6947740  19.0710310 134.4717610  86.8824100  18.2239890
 134.7259110  86.8445490  17.3019260 133.5230090  86.7557430  18.2168140
 131.5560410  73.2303220  14.8866830 132.4050940  73.6673370  14.8207020
 131.1891680  73.5423480  15.7138890 142.1848180  72.5582800  26.3537040
 141.6821780  73.2988200  26.6930850 143.0004840  72.9466800  26.0373830
 140.4770190  77.8015980  19.7998400 139.5360330  77.8166210  19.9746090
 140.7914260  77.0151940  20.2458700 130.4551830  79.4835580  13.3602360
 131.2215100  79.3716940  13.9227790 130.5326520  78.7873550  12.7079130
 129.1498590  76.9160650  14.0435250 129.2302180  75.9688160  14.1552650
 130.0418340  77.2467530  14.1495910 142.4795770  84.9724830  21.4752660
 142.6043190  85.7956000  21.9476470 143.3461330  84.7615560  21.1276810
 129.9513300  87.0656040  21.1469790 130.6875780  86.5171500  21.4178360
 130.3354220  87.9312050  21.0075780 126.8358780  83.1329610  17.0211300
 125.9098560  83.3750750  17.0116710 127.3015210  83.9603870  16.8996050
 128.9571580  86.2502110  30.3355370 129.7584310  86.5714160  30.7490770
 128.4423400  85.8897690  31.0575280 133.0615610  86.2386350  12.9695360
 133.8544220  86.5275180  12.5177150 132.5419960  85.8078520  12.2907840
 137.7936210  82.3581980  30.2830780 137.1874370  82.3813580  29.5426530
 137.4890320  81.6265020  30.8198030 139.2236580  86.0862270  28.8940190
 140.1758330  86.0020290  28.8440430 139.0764800  86.7503980  29.5673980
 142.1145780  85.4656480  14.3932100 141.8287290  85.0521620  13.5786280
 141.9165330  86.3944190  14.2732620 126.6769390  78.7375570  29.2791420
 127.1808410  78.1582850  29.8507650 125.9376810  79.0215800  29.8167790
 133.5793010  81.4589760  12.8337710 133.4743650  80.8442110  13.5599090
 133.4117230  80.9355650  12.0500720 133.7307330  80.1446560  28.8126940
 132.9653000  80.7131560  28.7281610 133.9123290  79.8522770  27.9195170
 136.8195740  80.5209790  13.4379700 136.2705840  80.9679090  14.0822440
 137.4415000  80.0159040  13.9617370 140.8730680  81.8751890  29.3701960
 141.6140150  82.2127650  28.8669420 140.1103360  82.0443950  28.8171730
 128.7092470  76.8805160  30.1741490 128.7497810  76.5819030  31.0826720
 129.5637970  77.2812770  30.0149010 132.4870860  79.4800710  15.3345000
 132.9087280  79.3140580  16.1776390 132.6121700  78.6700940  14.8400140
 130.6498280  75.4597260  28.1415980 130.1194740  74.9688210  27.5139320
 131.3186350  75.8881460  27.6073910 134.9998500  78.5038320  12.5822100
 135.5204160  77.7887340  12.2163250 135.6466900  79.1424190  12.8822610
 139.5476340  79.9266720  27.9057170 139.9617360  80.0811800  28.7547590
 138.6127340  80.0521940  28.0682950 140.0198510  77.2662880  29.9096320
 140.6019280  76.5115200  29.8216800 140.1960280  77.7970320  29.1327800
 131.1370580  72.4259630  28.2213270 131.0427450  71.8080380  27.4964140
 130.5567970  73.1525920  27.9943180 133.9032020  70.9832870  25.2540660
 133.4549320  71.0057130  24.4086210 133.2697220  70.5851890  25.8510960
 134.3091570  79.8787200  25.8753100 134.7279680  80.7219930  25.7029340
 133.3900200  80.0159240  25.6459880 136.6455470  77.6103380  27.2590940
 136.7651680  77.0144520  27.9985780 137.5049470  77.6473070  26.8392240
 138.9843370  78.1640570  25.8353450 138.4578590  78.6883190  25.2318590
 139.3274710  78.7967960  26.4663180 131.3829760  75.5533940  12.2803160
 131.1818820  74.6901300  12.6416500 131.2121810  75.4667300  11.3424760
 132.1598990  86.1840210  26.9910830 131.6220080  86.9086270  26.6719530
 132.4132950  85.7070550  26.2008170 133.4124240  74.1524730  28.5166760
 134.0023930  73.8440580  29.2044580 132.5944480  73.6804480  28.6726660
 138.2317670  73.7690540  28.7499780 137.5433190  73.1072080  28.6849770
 138.9523690  73.3228810  29.1948240 138.8618070  70.3642170  14.8090040
 139.1420360  69.5210070  15.1649460 138.0883800  70.5965280  15.3228790
 130.1812560  72.6534560  12.2681040 130.4838460  72.6601990  11.3600190
 130.9207150  72.3032420  12.7648700 135.0161200  87.4191420  27.2497480
 134.9419900  88.3226560  27.5569850 134.1140040  87.1003320  27.2219550
 133.3997490  71.5969180  13.2537240 133.0519490  70.9193170  12.6739690
 133.6010260  71.1358690  14.0680630 135.5646530  86.5849930  14.8723840
 136.4597320  86.9234900  14.8942600 135.5964160  85.8629340  14.2448120
 129.2042690  81.9576980  13.1010840 129.6417560  82.5006650  13.7568420
 129.6890420  81.1323930  13.1107180 126.4188490  84.7466010  20.5531100
 126.7491500  83.8787070  20.3209740 126.8479490  84.9524530  21.3836060
 131.0150410  83.0775020  18.2133070 130.7145950  82.9539990  19.1136980
 130.9087900  82.2183610  17.8048800 126.9078700  85.6136600  23.2912730
 126.4709690  85.7937400  24.1236880 127.4756380  86.3711220  23.1494450
 142.5440880  85.1153600  27.5790040 141.9442870  85.1746160  26.8353960
 142.6734780  84.1758580  27.7086890 143.7842330  82.8571420  12.9159750
 142.9535290  82.9248070  13.3866980 143.9614160  83.7475540  12.6126610
 143.2398790  79.6018900  15.4193950 144.0017700  80.1715550  15.5253640
 143.2553160  79.0346100  16.1902260 126.7403130  78.1256830  19.6501610
 126.0851970  77.8568470  19.0061310 127.5781080  78.0161310  19.2003590
 144.2458760  80.4569000  20.2635880 144.6167590  79.6736320  19.8571850
 144.8860690  81.1458100  20.0853180 141.2292520  81.8405580  25.6766200
 140.4152360  82.2702740  25.9391990 141.6366720  82.4523990  25.0635250
 143.2917960  79.8953270  12.5766470 143.5666800  80.8032150  12.4485690
 143.1028700  79.8315800  13.5128460 139.6893570  72.9198120  13.8720100
 140.1078450  72.7329100  13.0316760 139.3829630  72.0677170  14.1823030
 143.1883300  77.8322260  17.5695900 142.8126900  77.0650190  17.1377190
 142.4586420  78.2144960  18.0570830 127.7779060  78.5109400  24.1904950
 128.1452100  78.4236800  25.0700970 127.2089880  77.7475950  24.0911810
 142.5782920  76.9793780  27.2035420 142.3469010  76.7506530  26.3033370
 142.8387470  77.8993330  27.1580310 127.3295060  75.4218490  28.0963370
 126.4351110  75.3885250  28.4357080 127.8692610  75.6205280  28.8614620
 141.0170990  72.2050210  29.9815120 141.8941170  72.2133610  30.3649120
 141.0291830  71.4681050  29.3707470 125.9541210  75.3355760  15.5926940
 125.0505290  75.5985960  15.4178600 126.4381830  75.6066930  14.8126900
 142.4634260  76.0579750  20.8703140 142.9871740  75.5642400  20.2393310
 143.0493680  76.1930110  21.6150710 142.6423980  76.1419620  24.3922690
 141.6926690  76.1083160  24.5067680 142.8236990  77.0519730  24.1572460
 128.4968420  74.3921300  13.5021320 129.2060120  73.9704520  13.0168600
 127.7808360  74.4596530  12.8704670 141.9534230  75.3153100  16.8095550
 142.4493350  75.0823970  17.5944430 141.7550300  74.4764940  16.3933190
 127.8334770  69.6966820  22.4446590 128.4810960  69.1464200  22.0041750
 128.2536610  69.9509970  23.2662400 143.3821390  73.9514050  19.3433230
 143.2720670  73.7970090  20.2815500 144.1428980  73.4234990  19.1008640
 141.7287110  69.8908180  25.8016230 142.3659330  70.5042320  26.1675420
 141.8762000  69.9268840  24.8565460 144.2711660  71.7821970  12.5839370
 145.1960970  71.6503150  12.3757660 144.2487450  71.8614790  13.5375820
 144.3450150  72.5532630  15.2096080 143.5501650  72.4877750  15.7388990
 144.5493430  73.4883270  15.1981430 141.2868570  86.5924180  19.2034470
 141.8827640  86.2708750  18.5268890 141.5446720  86.1196000  19.9947740
 127.5866770  69.8522490  25.1871910 127.2381590  70.3086310  25.9530090
 127.2554470  68.9579620  25.2694340 129.1931140  83.0242090  29.3525100
 129.1500770  82.6535000  30.2339560 129.3242150  83.9619660  29.4926920
 132.8937170  84.5801680  24.9534820 132.6528530  84.8476240  24.0665340
 133.8339810  84.7507410  25.0085680 135.0991590  71.0434370  28.7091330
 135.0380480  71.6356200  29.4586740 136.0391970  70.9360330  28.5641590
 137.7366150  70.7004430  28.3483620 138.3506560  71.0183720  27.6864700
 138.2815710  70.2153020  28.9679480 144.1541330  86.5996060  25.7545460
 143.6599610  86.9964930  25.0372590 143.5454620  85.9745270  26.1482740
 128.2587410  69.3798690  28.4622680 128.8070400  69.1986740  27.6988790
 128.3242720  68.5892800  28.9978990 129.0319170  85.9704340  26.4722880
 128.4379490  85.8389040  27.2112920 129.0243010  85.1342480  26.0064980
 138.4774190  69.2636570  24.6752910 137.6034030  69.5971680  24.4725840
 138.3684940  68.7909750  25.5004780 139.3846170  71.4707440  26.0594630
 139.0559530  70.6559200  25.6796360 140.3328470  71.4277250  25.9360320
 141.8380780  87.2419480  23.0332200 141.3783750  87.9935290  22.6590220
 141.2093240  86.5225950  22.9747000 128.6631400  83.3362720  25.4230920
 127.9365460  82.7168010  25.3556870 128.7240550  83.7303330  24.5529000
 132.2676500  85.5507720  22.2080330 132.7841520  84.9395080  21.6828590
 132.9173880  86.0536500  22.6991340 135.0072000  86.4416210  23.0349310
 135.2949810  86.1870510  22.1582320 135.5195220  85.8893570  23.6254880
 136.2249010  70.1806410  23.6145820 135.4420800  70.6551910  23.8942580
 135.9311940  69.2761240  23.5059000 140.7770080  70.8829510  21.6594910
 141.2178170  70.8274610  20.8116510 140.5077670  71.7987520  21.7305090
 142.6408650  70.5144750  19.6703730 142.5797050  69.5705970  19.5234750
 143.4200680  70.6224840  20.2157190 126.9461400  86.6537110  18.6327680
 126.7783440  86.0207790  19.3309570 126.0795910  86.8596510  18.2821870
 127.5689420  70.4853890  16.1359540 128.3268780  70.5982770  15.5623570
 127.1066590  71.3223090  16.0902970 134.1103230  72.5993160  19.1261850
 133.2977740  72.2250050  18.7857730 134.6144870  71.8438240  19.4283040
 138.6128210  69.2635610  20.3644920 139.2157580  69.8355820  20.8393440
 137.8721200  69.8275050  20.1418820 141.7562810  69.6657170  15.6385200
 141.9513440  70.5640620  15.9052630 140.9692680  69.4344250  16.1318150
 128.5524100  85.3470340  16.0777820 128.0271720  85.7278370  15.3739780
 128.4768680  85.9721110  16.7987530 129.9414570  71.0117940  14.6761510
 130.4707330  70.2247740  14.5469460 130.5742890  71.6909130  14.9097040
 132.1352410  70.7493080  17.7306900 131.5055150  70.0480390  17.8977030
 131.5957550  71.5097210  17.5140060 135.0744360  87.3632310  30.4017510
 136.0011670  87.1276580  30.4453470 135.0594790  88.1904310  29.9203540
 143.3089420  86.9057880  17.3991760 143.4841610  86.2195620  16.7552680
 142.6110990  87.4304930  17.0068430 132.2607970  70.0277060  30.1659390
 131.9792240  70.5310660  29.4020210 132.6427670  69.2298810  29.8001520
 131.1517070  87.2952720  14.9527070 131.8835890  87.0112000  14.4050960
 131.4110740  87.0566000  15.8426450 130.3131860  83.4117450  14.9573400
 129.6840740  83.8802550  15.5059230 130.4279690  82.5666670  15.3919590
 138.8623430  69.4430640  30.7439860 138.7488880  69.7625250  31.6391380
 139.6793170  69.8443150  30.4477140 141.6421920  86.5902170  30.2258550
 142.4347240  86.0951400  30.0184510 141.9355070  87.2692310  30.8334160
 135.8999620  79.2402130   2.9883870 135.1241720  78.7602570   3.2782440
 136.5512550  78.5607780   2.8140030 129.9165450  79.5521940   3.8659630
 129.0850330  79.2970650   4.2656140 130.5246430  79.6232710   4.6017550
 129.8966710  83.5862030   4.0617650 130.1994750  82.6959770   3.8827870
 130.6410300  84.1432250   3.8339900 126.2890410  77.1129480   3.5341720
 126.8606520  76.3451680   3.5345360 126.2891950  77.4118240   2.6248330
 135.3408610  81.9159320   2.9954030 135.2716890  80.9749260   2.8343160
 136.1028470  82.0060730   3.5676600 127.5315280  72.5213840   5.3210650
 127.3518120  71.6239590   5.6013410 127.1295360  73.0685710   5.9957600
 136.3713780  74.7229700   3.2222960 136.7478600  73.8501580   3.1096630
 136.2733290  75.0588400   2.3313400 128.1501950  75.0174340   3.9292990
 128.8312060  75.2812710   4.5480390 127.8350000  74.1775210   4.2631000
 132.3426520  76.0641700   3.0165580 132.8504740  76.5622670   3.6570600
 132.8739760  75.2876900   2.8404940 144.4437450  74.2346890   6.7194930
 143.7389620  74.6228600   6.2010040 144.7095370  74.9297180   7.3215860
 130.6262620  70.7040260   7.2829000 130.6281060  71.2212650   6.4774900
 129.7966930  70.2270440   7.2598930 131.8765470  80.3435440   5.4602500
 131.5434850  80.9704360   6.1023570 132.0532150  80.8697320   4.6804170
 140.3899380  74.1580520   2.9278840 139.6854950  74.4465410   3.5081950
 140.7511540  74.9680630   2.5678400 130.3077950  72.4150220   5.2899450
 130.6494760  73.2592270   4.9953320 129.3693760  72.5633960   5.4064790
 131.0884570  82.3116240   7.2751680 131.7058570  82.9867320   6.9936130
 130.2277690  82.7204220   7.1839180 142.0062160  83.7755650   5.1906320
 141.3225680  84.4454760   5.1822990 142.5456450  83.9736300   4.4251180
 139.5420900  85.6199780   3.9051500 139.5548060  85.2162070   3.0373760
 138.9896120  86.3947070   3.8012930 138.9406340  80.5229620   5.2334110
 139.3575130  80.3089730   4.3987570 139.6646160  80.7802410   5.8042730
 142.8868440  78.9216840   5.3250350 142.0587070  78.9909930   4.8500480
 143.4818920  79.5071150   4.8566180 139.8510450  75.7086160   6.2705220
 139.4381630  76.5339870   6.5245210 139.1186400  75.1231200   6.0781580
 132.4524940  82.1813620   3.2963100 132.1553230  81.5759090   2.6170880
 133.4024760  82.2190930   3.1852460 130.6971860  75.2689270   4.9122930
 131.2486450  75.3784610   4.1376180 131.2115370  75.6426870   5.6278160
 140.5410550  85.7545490   6.9586200 140.0641110  86.5617680   6.7658810
 139.8572340  85.1023820   7.1112410 131.5443370  81.9195310   9.9470900
 130.6471900  82.1435280  10.1944300 131.5696240  82.0430250   8.9982300
 130.3714590  78.7908630   8.5228270 130.2322360  79.6631430   8.8915670
 129.4895950  78.4481440   8.3776210 132.1694940  84.7330330  10.7313420
 132.1410370  85.1373280   9.8641850 132.0059910  83.8040690  10.5685020
 144.1209760  85.5157430  12.0277590 144.5969480  85.9940320  12.7066670
 144.7416920  85.4474920  11.3023090 126.3233240  80.5606180   4.4399180
 126.4013660  80.6954950   3.4954900 126.9374920  79.8522070   4.6327300
 143.5243010  82.7070280   9.1877600 143.6506070  82.4682160   8.2694780
 143.5664390  81.8754820   9.6599680 137.3859750  86.4098280   7.7572410
 137.9004420  86.3206290   8.5594840 136.5428830  86.7557980   8.0500320
 143.3767020  74.7602740  10.1527340 142.7611290  75.2682410   9.6242800
 143.0563440  73.8601070  10.0953280 126.3792760  81.6020350   6.9793640
 126.5423800  81.1325710   6.1613010 126.8445210  81.0943910   7.6442480
 131.1511530  70.7326110   2.0154210 130.7079680  71.5135650   1.6838730
 131.7096520  71.0556000   2.7225150 135.4381340  73.5994630   7.6189530
 134.9760710  73.8077650   8.4309470 135.0359450  72.7853980   7.3160200
 140.4385850  74.8203580   8.7486190 139.5879440  74.5209330   9.0695260
 140.2787640  75.0645590   7.8370010 137.5335560  76.3205330  10.8484980
 137.8588970  75.4869080  10.5087210 138.3215890  76.8433850  10.9963310
 133.1887430  71.2773440   3.8743810 133.4859760  72.1836270   3.7935830
 133.7372990  70.7892220   3.2603380 133.3824960  76.7545260  10.4095730
 133.2868560  75.8139990  10.2596130 134.2256940  76.9760330  10.0143800
 128.5135500  73.1658930   8.5629510 128.1198890  74.0134140   8.7702290
 127.8253900  72.5285300   8.7538150 135.0880550  73.2493900  11.6326250
 134.3978870  73.0566100  12.2672340 135.8312850  73.5328540  12.1650550
 125.8152550  71.0887390   2.5959590 125.5265600  71.6590250   3.3084570
 126.5598310  70.6091840   2.9590820 137.3643520  77.0892340   4.4680170
 136.6324640  77.5979150   4.8170270 136.9667860  76.2722320   4.1668950
 133.8020910  73.7646540   2.8732660 133.8056970  73.3236490   2.0237200
 134.6972030  74.0863870   2.9804480 129.6523290  73.6473030   1.8326870
 129.3123340  74.1248260   2.5893920 128.8900610  73.1938150   1.4727970
 137.8269430  72.5426020   3.8803110 137.8442170  72.9934670   4.7244960
 137.5785010  71.6431660   4.0936550 141.2540180  69.9558200   9.7189490
 141.5785950  69.2247860  10.2447470 141.2896690  69.6371840   8.8170480
 127.9531740  80.9771780   9.1389450 127.5686530  80.3365450   9.7372410
 128.2643930  81.6807900   9.7084180 134.1028880  77.8248320   4.6198070
 134.4699010  77.3506890   5.3659410 133.9133940  78.6989890   4.9606410
 131.8928250  76.8656960   6.9382280 131.5885320  77.7448940   7.1632640
 132.8474710  76.9256750   6.9739720 141.1798020  80.0683310   3.3275520
 141.8997140  80.5638600   2.9371630 140.9779840  79.3901200   2.6829390
 136.5616820  80.1392370   9.2144520 136.4954130  79.2188040   8.9602110
 135.9321960  80.2367810   9.9289160 127.9491980  77.7059700   8.0853640
 127.5906920  78.3713550   8.6726980 127.6546540  76.8743250   8.4566260
 131.1505100  78.1643940  10.9693190 130.8505240  78.3101120  10.0721010
 131.9216340  77.6049230  10.8766580 136.4933550  82.9612940   8.9648320
 136.5078090  82.0293900   8.7467230 135.7858650  83.0472700   9.6038090
 142.7044760  79.6020280   8.3116900 141.9792950  80.1949060   8.1146290
 143.2320220  79.5943820   7.5130270 135.9267450  84.6030510   6.0588820
 136.5709670  84.8089890   6.7362240 136.2896890  83.8418910   5.6059670
 137.1999530  82.6062860   4.7766270 137.8421760  81.9056020   4.8898440
 137.7248880  83.3861300   4.5963160 138.9737150  83.4057760   7.9802330
 139.3093390  83.9924450   8.6580250 138.0537490  83.2750470   8.2100120
 126.5240550  71.1952940   8.7625740 125.8099070  71.3949860   9.3678350
 126.9435590  70.4192510   9.1340540 126.8113140  85.1833200   9.7492270
 126.9204260  84.2427940   9.6087660 126.1593700  85.4487950   9.1006000
 134.8025730  83.4549090  11.1490390 134.4822600  82.7358330  11.6936080
 134.1284090  84.1304160  11.2226450 138.0179330  73.6875250   6.5127190
 138.3860150  72.8670460   6.8406760 137.1577530  73.7477140   6.9282840
 134.9781320  76.3414840   6.7365160 135.4766570  76.8160660   7.4017010
 135.1204270  75.4178360   6.9435190 142.1848180  72.5582800   7.5793550
 141.6821780  73.2988200   7.9187360 143.0004840  72.9466800   7.2630340
 142.4795770  84.9724830   2.7009170 142.6043190  85.7956000   3.1732980
 143.3461330  84.7615560   2.3533320 129.9513300  87.0656040   2.3726300
 130.6875780  86.5171500   2.6434870 130.3354220  87.9312050   2.2332290
 128.9571580  86.2502110  11.5611880 129.7584310  86.5714160  11.9747280
 128.4423400  85.8897690  12.2831790 137.7936210  82.3581980  11.5087290
 137.1874370  82.3813580  10.7683040 137.4890320  81.6265020  12.0454540
 139.2236580  86.0862270  10.1196700 140.1758330  86.0020290  10.0696940
 139.0764800  86.7503980  10.7930490 126.6769390  78.7375570  10.5047930
 127.1808410  78.1582850  11.0764160 125.9376810  79.0215800  11.0424300
 133.7307330  80.1446560  10.0383450 132.9653000  80.7131560   9.9538120
 133.9123290  79.8522770   9.1451680 140.8730680  81.8751890  10.5958470
 141.6140150  82.2127650  10.0925930 140.1103360  82.0443950  10.0428240
 128.7092470  76.8805160  11.3998000 128.7497810  76.5819030  12.3083230
 129.5637970  77.2812770  11.2405520 130.6498280  75.4597260   9.3672490
 130.1194740  74.9688210   8.7395830 131.3186350  75.8881460   8.8330420
 139.5476340  79.9266720   9.1313680 139.9617360  80.0811800   9.9804100
 138.6127340  80.0521940   9.2939460 140.0198510  77.2662880  11.1352830
 140.6019280  76.5115200  11.0473310 140.1960280  77.7970320  10.3584310
 131.1370580  72.4259630   9.4469780 131.0427450  71.8080380   8.7220650
 130.5567970  73.1525920   9.2199690 133.9032020  70.9832870   6.4797170
 133.4549320  71.0057130   5.6342720 133.2697220  70.5851890   7.0767470
 134.3091570  79.8787200   7.1009610 134.7279680  80.7219930   6.9285850
 133.3900200  80.0159240   6.8716390 136.6455470  77.6103380   8.4847450
 136.7651680  77.0144520   9.2242290 137.5049470  77.6473070   8.0648750
 138.9843370  78.1640570   7.0609960 138.4578590  78.6883190   6.4575100
 139.3274710  78.7967960   7.6919690 132.1598990  86.1840210   8.2167340
 131.6220080  86.9086270   7.8976040 132.4132950  85.7070550   7.4264680
 133.4124240  74.1524730   9.7423270 134.0023930  73.8440580  10.4301090
 132.5944480  73.6804480   9.8983170 138.2317670  73.7690540   9.9756290
 137.5433190  73.1072080   9.9106280 138.9523690  73.3228810  10.4204750
 135.0161200  87.4191420   8.4753990 134.9419900  88.3226560   8.7826360
 134.1140040  87.1003320   8.4476060 126.4188490  84.7466010   1.7787610
 126.7491500  83.8787070   1.5466250 126.8479490  84.9524530   2.6092570
 126.9078700  85.6136600   4.5169240 126.4709690  85.7937400   5.3493390
 127.4756380  86.3711220   4.3750960 142.5440880  85.1153600   8.8046550
 141.9442870  85.1746160   8.0610470 142.6734780  84.1758580   8.9343400
 141.2292520  81.8405580   6.9022710 140.4152360  82.2702740   7.1648500
 141.6366720  82.4523990   6.2891760 127.7779060  78.5109400   5.4161460
 128.1452100  78.4236800   6.2957480 127.2089880  77.7475950   5.3168320
 142.5782920  76.9793780   8.4291930 142.3469010  76.7506530   7.5289880
 142.8387470  77.8993330   8.3836820 127.3295060  75.4218490   9.3219880
 126.4351110  75.3885250   9.6613590 127.8692610  75.6205280  10.0871130
 141.0170990  72.2050210  11.2071630 141.8941170  72.2133610  11.5905630
 141.0291830  71.4681050  10.5963980 142.4634260  76.0579750   2.0959650
 142.9871740  75.5642400   1.4649820 143.0493680  76.1930110   2.8407220
 142.6423980  76.1419620   5.6179200 141.6926690  76.1083160   5.7324190
 142.8236990  77.0519730   5.3828970 127.8334770  69.6966820   3.6703100
 128.4810960  69.1464200   3.2298260 128.2536610  69.9509970   4.4918910
 141.7287110  69.8908180   7.0272740 142.3659330  70.5042320   7.3931930
 141.8762000  69.9268840   6.0821970 127.5866770  69.8522490   6.4128420
 127.2381590  70.3086310   7.1786600 127.2554470  68.9579620   6.4950850
 129.1931140  83.0242090  10.5781610 129.1500770  82.6535000  11.4596070
 129.3242150  83.9619660  10.7183430 132.8937170  84.5801680   6.1791330
 132.6528530  84.8476240   5.2921850 133.8339810  84.7507410   6.2342190
 135.0991590  71.0434370   9.9347840 135.0380480  71.6356200  10.6843250
 136.0391970  70.9360330   9.7898100 137.7366150  70.7004430   9.5740130
 138.3506560  71.0183720   8.9121210 138.2815710  70.2153020  10.1935990
 144.1541330  86.5996060   6.9801970 143.6599610  86.9964930   6.2629100
 143.5454620  85.9745270   7.3739250 128.2587410  69.3798690   9.6879190
 128.8070400  69.1986740   8.9245300 128.3242720  68.5892800  10.2235500
 129.0319170  85.9704340   7.6979390 128.4379490  85.8389040   8.4369430
 129.0243010  85.1342480   7.2321490 138.4774190  69.2636570   5.9009420
 137.6034030  69.5971680   5.6982350 138.3684940  68.7909750   6.7261290
 139.3846170  71.4707440   7.2851140 139.0559530  70.6559200   6.9052870
 140.3328470  71.4277250   7.1616830 141.8380780  87.2419480   4.2588710
 141.3783750  87.9935290   3.8846730 141.2093240  86.5225950   4.2003510
 128.6631400  83.3362720   6.6487430 127.9365460  82.7168010   6.5813380
 128.7240550  83.7303330   5.7785510 132.2676500  85.5507720   3.4336840
 132.7841520  84.9395080   2.9085100 132.9173880  86.0536500   3.9247850
 135.0072000  86.4416210   4.2605820 135.2949810  86.1870510   3.3838830
 135.5195220  85.8893570   4.8511390 136.2249010  70.1806410   4.8402330
 135.4420800  70.6551910   5.1199090 135.9311940  69.2761240   4.7315510
 140.7770080  70.8829510   2.8851420 141.2178170  70.8274610   2.0373020
 140.5077670  71.7987520   2.9561600 135.0744360  87.3632310  11.6274020
 136.0011670  87.1276580  11.6709980 135.0594790  88.1904310  11.1460050
 132.2607970  70.0277060  11.3915900 131.9792240  70.5310660  10.6276720
 132.6427670  69.2298810  11.0258030 138.8623430  69.4430640  11.9696370
 138.7488880  69.7625250  12.8647890 139.6793170  69.8443150  11.6733650
 141.6421920  86.5902170  11.4515060 142.4347240  86.0951400  11.2441020
 141.9355070  87.2692310  12.0590670 137.7681580  58.6879620  57.4305070
 137.6875630  57.7734230  57.1596780 137.3546000  59.1846690  56.7244780
 135.8999620  60.4658640  59.3114340 135.1241720  59.9859080  59.6012910
 136.5512550  59.7864290  59.1370500 139.9207050  64.8718830  58.0913470
 139.4588580  64.1006070  58.4200640 140.7332600  64.8984900  58.5965920
 128.3257400  55.7380340  53.9732490 127.4374100  56.0796310  53.8712370
 128.6098590  55.5380660  53.0813320 126.2890410  58.3385990  59.8572190
 126.8606520  57.5708190  59.8575830 126.2891950  58.6374750  58.9478800
 136.1470360  67.1576840  57.7117460 135.5281800  67.6134340  57.1411900
 137.0022140  67.3128300  57.3107160 135.3408610  63.1415830  59.3184500
 135.2716890  62.2005770  59.1573630 136.1028470  63.2317240  59.8907070
 136.3713780  55.9486210  59.5453430 136.7478600  55.0758090  59.4327100
 136.2733290  56.2844910  58.6543870 130.5018790  54.3211840  55.0070870
 130.6085540  55.2215570  55.3139630 129.5911150  54.2729810  54.7165520
 140.1537900  53.4436650  56.4781770 140.9747520  52.9533220  56.5207250
 140.1871980  54.0334310  57.2313610 132.3426520  57.2898210  59.3396050
 132.8504740  57.7879180  59.9801070 132.8739760  56.5133410  59.1635410
 137.0133710  62.0416080  55.1049370 136.3950980  62.5065530  54.5412090
 137.5256960  62.7343560  55.5218880 140.3899380  55.3837030  59.2509310
 139.6854950  55.6721920  59.8312420 140.7511540  56.1937140  58.8908870
 126.3816910  62.7272610  52.4789000 126.0044890  63.2159710  51.7473900
 126.6389980  63.3997890  53.1095530 143.4586300  54.8291820  59.6418520
 142.5111210  54.8630800  59.7733950 143.7836290  55.6430770  60.0267880
 133.9905840  51.1289000  57.9374510 134.2980820  50.5735890  57.2210010
 133.0606540  51.2633460  57.7547500 139.5420900  66.8456290  60.2281970
 139.5548060  66.4418580  59.3604230 138.9896120  67.6203580  60.1243400
 140.8366320  63.5672510  55.3172140 140.7262650  62.6246840  55.4421560
 140.8334570  63.9288150  56.2034900 136.3786600  59.1937830  54.6734630
 135.4515880  59.1275210  54.9023100 136.5311420  60.1317960  54.5589870
 136.3655680  55.4654830  51.6701790 135.4259350  55.6268790  51.7554250
 136.6838940  56.1840510  51.1237780 140.4083890  60.7558130  55.1769880
 139.7896310  60.4177680  54.5296180 140.3908340  60.1117890  55.8849070
 131.9843240  59.7202570  57.4554360 131.5800240  59.0079820  56.9600260
 132.0706360  59.3755810  58.3442400 132.4524940  63.4070130  59.6193570
 132.1553230  62.8015600  58.9401350 133.4024760  63.4447440  59.5082930
 138.5848590  59.9944940  52.1842630 139.0241870  59.1567370  52.0380450
 139.2977010  60.6274340  52.2706770 136.6943970  64.9341010  56.1523870
 137.1339880  65.6765340  55.7379260 136.6330860  65.1767580  57.0762830
 142.1665730  51.2487750  50.4983670 141.8538390  51.3414580  51.3982740
 142.9278200  51.8268780  50.4481100 128.6847870  58.6147550  54.9561010
 128.5645470  59.3409640  54.3442280 128.3748760  57.8450460  54.4788920
 127.5680870  63.4862880  57.1735830 127.1608950  63.6277470  56.3189430
 128.4593880  63.2023040  56.9707040 139.3614150  67.9210130  53.5086880
 139.2015290  67.6313070  54.4068710 139.1960860  67.1450260  52.9732110
 131.8402530  67.7008660  55.2858500 131.6645010  66.7844200  55.0726300
 130.9858270  68.0595950  55.5256300 139.0640280  65.4297690  52.0684880
 138.3705440  65.4274980  51.4087160 139.8063140  65.0057010  51.6379050
 138.6290210  67.0560400  56.1433370 139.0847160  66.2749780  56.4571990
 138.9682730  67.7667220  56.6874550 131.1511530  51.9582620  58.3384680
 130.7079680  52.7392160  58.0069200 131.7096520  52.2812510  59.0455620
 134.2670350  51.5793320  53.2190510 133.6424530  51.5753190  53.9443820
 134.1800470  50.7124280  52.8226480 133.1887430  52.5029950  60.1974280
 133.4859760  53.4092780  60.1166300 133.7372990  52.0148730  59.5833850
 130.9425750  57.0816190  56.0665930 130.7166670  56.8653360  56.9712550
 130.1618280  57.5144650  55.7211900 138.1723510  57.0879560  54.6656580
 137.5732400  57.8115360  54.4820200 138.7203120  57.0256340  53.8833030
 136.7788380  55.7243100  56.6959860 137.1717950  56.0415300  55.8828550
 137.1405230  54.8454980  56.8104380 125.8152550  52.3143900  58.9190060
 125.5265600  52.8846760  59.6315040 126.5598310  51.8348350  59.2821290
 126.0022780  56.2564020  50.1292780 125.9197450  57.1994780  50.2707770
 125.6505840  56.1138930  49.2505130 133.8020910  54.9903050  59.1963130
 133.8056970  54.5493000  58.3467670 134.6972030  55.3120380  59.3034950
 129.6523290  54.8729540  58.1557340 129.3123340  55.3504770  58.9124390
 128.8900610  54.4194660  57.7958440 133.8641060  55.9915130  52.1869890
 133.9853880  55.9501610  53.1355710 133.4789570  56.8539280  52.0316620
 132.8762560  58.3016270  51.5853190 132.3079460  57.8534520  50.9589100
 133.5851560  58.6609050  51.0518340 126.9669370  53.7948520  57.0722010
 126.6816290  53.4304190  57.9100630 126.9048230  53.0628980  56.4585150
 130.4210040  62.2974460  53.8579600 129.6472300  61.7572080  53.6978320
 131.1504670  61.7781070  53.5197360 141.1798020  61.2939820  59.6505990
 141.8997140  61.7895110  59.2602100 140.9779840  60.6157710  59.0059860
 136.6407960  52.6877780  53.7935380 135.8272570  52.1890950  53.7180690
 136.4469910  53.5276030  53.3771730 139.3556350  57.0597430  52.0897540
 140.2435970  57.3714660  51.9148880 139.3261440  56.1869680  51.6978120
 130.4647440  61.9654840  57.4958410 130.9826110  61.1623100  57.4415300
 130.0131460  61.9033980  58.3375240 135.3516940  63.2321120  52.7685710
 135.6932640  63.9763350  52.2729030 134.5229650  63.5452240  53.1310540
 141.6270620  58.3709270  51.5577400 141.5434340  58.8023490  50.7073840
 142.3464810  58.8307620  51.9904220 142.6557870  65.2251530  54.2859530
 142.0134030  64.5707150  54.5603250 142.2688530  65.6306620  53.5100200
 138.2344350  62.5536960  58.1331220 138.5868170  61.9565090  57.4732590
 137.3506680  62.2281190  58.3039470 134.3207630  63.3134650  55.5401630
 135.0078760  63.8603860  55.9209220 133.5340050  63.8575380  55.5751240
 126.4600030  58.9307470  51.0318710 127.3294880  59.2132270  51.3154630
 125.9690350  59.7443340  50.9167520 133.6234840  60.3180680  55.1526990
 134.0797620  61.1285930  55.3787180 133.2723050  60.0003820  55.9845480
 129.5246620  50.6618330  55.6249510 129.3961250  50.6536230  56.5734430
 128.7008640  51.0001420  55.2740520 141.0455250  64.1167990  50.8235880
 140.8192830  63.3998430  51.4160520 140.6551450  63.8680430  49.9857630
 126.8271280  68.1434850  51.5980340 127.1868920  68.7424190  50.9437610
 126.6863620  68.6894740  52.3715370 140.6271500  62.0339930  52.4850040
 140.3393200  62.4952620  53.2727920 141.4223670  61.5737700  52.7534260
 132.8439900  65.5266050  52.4154010 132.8350000  66.2595740  51.7998520
 131.9238260  65.2797630  52.5080970 128.4446540  60.7480940  53.1600770
 127.8374490  61.4879840  53.1696070 128.9195890  60.8380300  52.3338970
 141.3841360  53.8688700  53.6445220 140.7554520  53.9734370  52.9303450
 140.8893280  54.0885480  54.4339100 135.8299500  65.5894290  51.0779200
 135.9311480  65.3858280  50.1481180 134.9301240  65.3352570  51.2826980
 133.3525390  56.1474650  55.0603100 132.6441540  56.6160990  55.5016710
 133.6369870  55.4896660  55.6948290 137.3840820  52.8725310  56.4998890
 137.2608600  52.8911440  55.5508400 138.3325380  52.9204250  56.6197290
 134.4717610  68.1080610  55.7726870 134.7259110  68.0702000  54.8506240
 133.5230090  67.9813940  55.7655120 131.5560410  54.4559730  52.4353810
 132.4050940  54.8929880  52.3694000 131.1891680  54.7679990  53.2625870
 140.4770190  59.0272490  57.3485380 139.5360330  59.0422720  57.5233070
 140.7914260  58.2408450  57.7945680 130.4551830  60.7092090  50.9089340
 131.2215100  60.5973450  51.4714770 130.5326520  60.0130060  50.2566110
 129.1498590  58.1417160  51.5922230 129.2302180  57.1944670  51.7039630
 130.0418340  58.4724040  51.6982890 142.4795770  66.1981340  59.0239640
 142.6043190  67.0212510  59.4963450 143.3461330  65.9872070  58.6763790
 129.9513300  68.2912550  58.6956770 130.6875780  67.7428010  58.9665340
 130.3354220  69.1568560  58.5562760 126.8358780  64.3586120  54.5698280
 125.9098560  64.6007260  54.5603690 127.3015210  65.1860380  54.4483030
 133.0615610  67.4642860  50.5182340 133.8544220  67.7531690  50.0664130
 132.5419960  67.0335030  49.8394820 142.1145780  66.6912990  51.9419080
 141.8287290  66.2778130  51.1273260 141.9165330  67.6200700  51.8219600
 133.5793010  62.6846270  50.3824690 133.4743650  62.0698620  51.1086070
 133.4117230  62.1612160  49.5987700 136.8195740  61.7466300  50.9866680
 136.2705840  62.1935600  51.6309420 137.4415000  61.2415550  51.5104350
 132.4870860  60.7057220  52.8831980 132.9087280  60.5397090  53.7263370
 132.6121700  59.8957450  52.3887120 134.9998500  59.7294830  50.1309080
 135.5204160  59.0143850  49.7650230 135.6466900  60.3680700  50.4309590
 131.3829760  56.7790450  49.8290140 131.1818820  55.9157810  50.1903480
 131.2121810  56.6923810  48.8911740 138.8618070  51.5898680  52.3577020
 139.1420360  50.7466580  52.7136440 138.0883800  51.8221790  52.8715770
 130.1812560  53.8791070  49.8168020 130.4838460  53.8858500  48.9087170
 130.9207150  53.5288930  50.3135680 133.3997490  52.8225690  50.8024220
 133.0519490  52.1449680  50.2226670 133.6010260  52.3615200  51.6167610
 135.5646530  67.8106440  52.4210820 136.4597320  68.1491410  52.4429580
 135.5964160  67.0885850  51.7935100 129.2042690  63.1833490  50.6497820
 129.6417560  63.7263160  51.3055400 129.6890420  62.3580440  50.6594160
 126.4188490  65.9722520  58.1018080 126.7491500  65.1043580  57.8696720
 126.8479490  66.1781040  58.9323040 131.0150410  64.3031530  55.7620050
 130.7145950  64.1796500  56.6623960 130.9087900  63.4440120  55.3535780
 143.7842330  64.0827930  50.4646730 142.9535290  64.1504580  50.9353960
 143.9614160  64.9732050  50.1613590 143.2398790  60.8275410  52.9680930
 144.0017700  61.3972060  53.0740620 143.2553160  60.2602610  53.7389240
 126.7403130  59.3513340  57.1988590 126.0851970  59.0824980  56.5548290
 127.5781080  59.2417820  56.7490570 144.2458760  61.6825510  57.8122860
 144.6167590  60.8992830  57.4058830 144.8860690  62.3714610  57.6340160
 143.2917960  61.1209780  50.1253450 143.5666800  62.0288660  49.9972670
 143.1028700  61.0572310  51.0615440 139.6893570  54.1454630  51.4207080
 140.1078450  53.9585610  50.5803740 139.3829630  53.2933680  51.7310010
 143.1883300  59.0578770  55.1182880 142.8126900  58.2906700  54.6864170
 142.4586420  59.4401470  55.6057810 125.9541210  56.5612270  53.1413920
 125.0505290  56.8242470  52.9665580 126.4381830  56.8323440  52.3613880
 142.4634260  57.2836260  58.4190120 142.9871740  56.7898910  57.7880290
 143.0493680  57.4186620  59.1637690 128.4968420  55.6177810  51.0508300
 129.2060120  55.1961030  50.5655580 127.7808360  55.6853040  50.4191650
 128.1442580  51.6717140  50.0910950 128.8670710  52.2126080  50.4092170
 128.4167100  51.3980560  49.2152490 141.9534230  56.5409610  54.3582530
 142.4493350  56.3080480  55.1431410 141.7550300  55.7021450  53.9420170
 143.3821390  55.1770560  56.8920210 143.2720670  55.0226600  57.8302480
 144.1428980  54.6491500  56.6495620 144.2711660  53.0078480  50.1326350
 145.1960970  52.8759660  49.9244640 144.2487450  53.0871300  51.0862800
 144.3450150  53.7789140  52.7583060 143.5501650  53.7134260  53.2875970
 144.5493430  54.7139780  52.7468410 141.2868570  67.8180690  56.7521450
 141.8827640  67.4965260  56.0755870 141.5446720  67.3452510  57.5434720
 132.2676500  66.7764230  59.7567310 132.7841520  66.1651590  59.2315570
 132.9173880  67.2793010  60.2478320 140.7770080  52.1086020  59.2081890
 141.2178170  52.0531120  58.3603490 140.5077670  53.0244030  59.2792070
 142.6408650  51.7401260  57.2190710 142.5797050  50.7962480  57.0721730
 143.4200680  51.8481350  57.7644170 126.9461400  67.8793620  56.1814660
 126.7783440  67.2464300  56.8796550 126.0795910  68.0853020  55.8308850
 127.5689420  51.7110400  53.6846520 128.3268780  51.8239280  53.1110550
 127.1066590  52.5479600  53.6389950 134.1103230  53.8249670  56.6748830
 133.2977740  53.4506560  56.3344710 134.6144870  53.0694750  56.9770020
 138.6128210  50.4892120  57.9131900 139.2157580  51.0612330  58.3880420
 137.8721200  51.0531560  57.6905800 141.7562810  50.8913680  53.1872180
 141.9513440  51.7897130  53.4539610 140.9692680  50.6600760  53.6805130
 128.5524100  66.5726850  53.6264800 128.0271720  66.9534880  52.9226760
 128.4768680  67.1977620  54.3474510 129.9414570  52.2374450  52.2248490
 130.4707330  51.4504250  52.0956440 130.5742890  52.9165640  52.4584020
 132.1352410  51.9749590  55.2793880 131.5055150  51.2736900  55.4464010
 131.5957550  52.7353720  55.0627040 143.3089420  68.1314390  54.9478740
 143.4841610  67.4452130  54.3039660 142.6110990  68.6561440  54.5555410
 131.1517070  68.5209230  52.5014050 131.8835890  68.2368510  51.9537940
 131.4110740  68.2822510  53.3913430 130.3131860  64.6373960  52.5060380
 129.6840740  65.1059060  53.0546210 130.4279690  63.7923180  52.9406570
 137.7681580  58.6879620  38.6561580 137.6875630  57.7734230  38.3853290
 137.3546000  59.1846690  37.9501290 135.8999620  60.4658640  40.5370850
 135.1241720  59.9859080  40.8269420 136.5512550  59.7864290  40.3627010
 129.9165450  60.7778450  41.4146610 129.0850330  60.5227160  41.8143120
 130.5246430  60.8489220  42.1504530 139.9207050  64.8718830  39.3169980
 139.4588580  64.1006070  39.6457150 140.7332600  64.8984900  39.8222430
 129.8966710  64.8118540  41.6104630 130.1994750  63.9216280  41.4314850
 130.6410300  65.3688760  41.3826880 128.3257400  55.7380340  35.1989000
 127.4374100  56.0796310  35.0968880 128.6098590  55.5380660  34.3069830
 126.2890410  58.3385990  41.0828700 126.8606520  57.5708190  41.0832340
 126.2891950  58.6374750  40.1735310 136.1470360  67.1576840  38.9373970
 135.5281800  67.6134340  38.3668410 137.0022140  67.3128300  38.5363670
 135.3408610  63.1415830  40.5441010 135.2716890  62.2005770  40.3830140
 136.1028470  63.2317240  41.1163580 127.5315280  53.7470350  42.8697630
 127.3518120  52.8496100  43.1500390 127.1295360  54.2942220  43.5444580
 136.3713780  55.9486210  40.7709940 136.7478600  55.0758090  40.6583610
 136.2733290  56.2844910  39.8800380 130.5018790  54.3211840  36.2327380
 130.6085540  55.2215570  36.5396140 129.5911150  54.2729810  35.9422030
 140.1537900  53.4436650  37.7038280 140.9747520  52.9533220  37.7463760
 140.1871980  54.0334310  38.4570120 128.1501950  56.2430850  41.4779970
 128.8312060  56.5069220  42.0967370 127.8350000  55.4031720  41.8117980
 132.3426520  57.2898210  40.5652560 132.8504740  57.7879180  41.2057580
 132.8739760  56.5133410  40.3891920 144.4437450  55.4603400  44.2681910
 143.7389620  55.8485110  43.7497020 144.7095370  56.1553690  44.8702840
 130.6262620  51.9296770  44.8315980 130.6281060  52.4469160  44.0261880
 129.7966930  51.4526950  44.8085910 137.0133710  62.0416080  36.3305880
 136.3950980  62.5065530  35.7668600 137.5256960  62.7343560  36.7475390
 131.8765470  61.5691950  43.0089480 131.5434850  62.1960870  43.6510550
 132.0532150  62.0953830  42.2291150 140.3899380  55.3837030  40.4765820
 139.6854950  55.6721920  41.0568930 140.7511540  56.1937140  40.1165380
 130.3077950  53.6406730  42.8386430 130.6494760  54.4848780  42.5440300
 129.3693760  53.7890470  42.9551770 131.0884570  63.5372750  44.8238660
 131.7058570  64.2123830  44.5423110 130.2277690  63.9460730  44.7326160
 126.3816910  62.7272610  33.7045510 126.0044890  63.2159710  32.9730410
 126.6389980  63.3997890  34.3352040 142.0062160  65.0012160  42.7393300
 141.3225680  65.6711270  42.7309970 142.5456450  65.1992810  41.9738160
 143.4586300  54.8291820  40.8675030 142.5111210  54.8630800  40.9990460
 143.7836290  55.6430770  41.2524390 133.9905840  51.1289000  39.1631020
 134.2980820  50.5735890  38.4466520 133.0606540  51.2633460  38.9804010
 139.5420900  66.8456290  41.4538480 139.5548060  66.4418580  40.5860740
 138.9896120  67.6203580  41.3499910 140.8366320  63.5672510  36.5428650
 140.7262650  62.6246840  36.6678070 140.8334570  63.9288150  37.4291410
 138.9406340  61.7486130  42.7821090 139.3575130  61.5346240  41.9474550
 139.6646160  62.0058920  43.3529710 136.3786600  59.1937830  35.8991140
 135.4515880  59.1275210  36.1279610 136.5311420  60.1317960  35.7846380
 136.3655680  55.4654830  32.8958300 135.4259350  55.6268790  32.9810760
 136.6838940  56.1840510  32.3494290 142.8868440  60.1473350  42.8737330
 142.0587070  60.2166440  42.3987460 143.4818920  60.7327660  42.4053160
 140.4083890  60.7558130  36.4026390 139.7896310  60.4177680  35.7552690
 140.3908340  60.1117890  37.1105580 139.8510450  56.9342670  43.8192200
 139.4381630  57.7596380  44.0732190 139.1186400  56.3487710  43.6268560
 131.9843240  59.7202570  38.6810870 131.5800240  59.0079820  38.1856770
 132.0706360  59.3755810  39.5698910 132.4524940  63.4070130  40.8450080
 132.1553230  62.8015600  40.1657860 133.4024760  63.4447440  40.7339440
 130.6971860  56.4945780  42.4609910 131.2486450  56.6041120  41.6863160
 131.2115370  56.8683380  43.1765140 140.5410550  66.9802000  44.5073180
 140.0641110  67.7874190  44.3145790 139.8572340  66.3280330  44.6599390
 131.5443370  63.1451820  47.4957880 130.6471900  63.3691790  47.7431280
 131.5696240  63.2686760  46.5469280 138.5848590  59.9944940  33.4099140
 139.0241870  59.1567370  33.2636960 139.2977010  60.6274340  33.4963280
 130.3714590  60.0165140  46.0715250 130.2322360  60.8887940  46.4402650
 129.4895950  59.6737950  45.9263190 136.6943970  64.9341010  37.3780380
 137.1339880  65.6765340  36.9635770 136.6330860  65.1767580  38.3019340
 132.1694940  65.9586840  48.2800400 132.1410370  66.3629790  47.4128830
 132.0059910  65.0297200  48.1172000 142.1665730  51.2487750  31.7240180
 141.8538390  51.3414580  32.6239250 142.9278200  51.8268780  31.6737610
 128.6847870  58.6147550  36.1817520 128.5645470  59.3409640  35.5698790
 128.3748760  57.8450460  35.7045430 144.1209760  66.7413940  49.5764570
 144.5969480  67.2196830  50.2553650 144.7416920  66.6731430  48.8510070
 126.3233240  61.7862690  41.9886160 126.4013660  61.9211460  41.0441880
 126.9374920  61.0778580  42.1814280 127.5680870  63.4862880  38.3992340
 127.1608950  63.6277470  37.5445940 128.4593880  63.2023040  38.1963550
 143.5243010  63.9326790  46.7364580 143.6506070  63.6938670  45.8181760
 143.5664390  63.1011330  47.2086660 137.3859750  67.6354790  45.3059390
 137.9004420  67.5462800  46.1081820 136.5428830  67.9814490  45.5987300
 139.3614150  67.9210130  34.7343390 139.2015290  67.6313070  35.6325220
 139.1960860  67.1450260  34.1988620 131.8402530  67.7008660  36.5115010
 131.6645010  66.7844200  36.2982810 130.9858270  68.0595950  36.7512810
 139.0640280  65.4297690  33.2941390 138.3705440  65.4274980  32.6343670
 139.8063140  65.0057010  32.8635560 138.6290210  67.0560400  37.3689880
 139.0847160  66.2749780  37.6828500 138.9682730  67.7667220  37.9131060
 143.3767020  55.9859250  47.7014320 142.7611290  56.4938920  47.1729780
 143.0563440  55.0857580  47.6440260 126.3792760  62.8276860  44.5280620
 126.5423800  62.3582220  43.7099990 126.8445210  62.3200420  45.1929460
 131.1511530  51.9582620  39.5641190 130.7079680  52.7392160  39.2325710
 131.7096520  52.2812510  40.2712130 135.4381340  54.8251140  45.1676510
 134.9760710  55.0334160  45.9796450 135.0359450  54.0110490  44.8647180
 140.4385850  56.0460090  46.2973170 139.5879440  55.7465840  46.6182240
 140.2787640  56.2902100  45.3856990 137.5335560  57.5461840  48.3971960
 137.8588970  56.7125590  48.0574190 138.3215890  58.0690360  48.5450290
 134.2670350  51.5793320  34.4447020 133.6424530  51.5753190  35.1700330
 134.1800470  50.7124280  34.0482990 133.1887430  52.5029950  41.4230790
 133.4859760  53.4092780  41.3422810 133.7372990  52.0148730  40.8090360
 130.9425750  57.0816190  37.2922440 130.7166670  56.8653360  38.1969060
 130.1618280  57.5144650  36.9468410 138.1723510  57.0879560  35.8913090
 137.5732400  57.8115360  35.7076710 138.7203120  57.0256340  35.1089540
 133.3824960  57.9801770  47.9582710 133.2868560  57.0396500  47.8083110
 134.2256940  58.2016840  47.5630780 136.7788380  55.7243100  37.9216370
 137.1717950  56.0415300  37.1085060 137.1405230  54.8454980  38.0360890
 128.5135500  54.3915440  46.1116490 128.1198890  55.2390650  46.3189270
 127.8253900  53.7541810  46.3025130 135.0880550  54.4750410  49.1813230
 134.3978870  54.2822610  49.8159320 135.8312850  54.7585050  49.7137530
 125.8152550  52.3143900  40.1446570 125.5265600  52.8846760  40.8571550
 126.5598310  51.8348350  40.5077800 126.0022780  56.2564020  31.3549290
 125.9197450  57.1994780  31.4964280 125.6505840  56.1138930  30.4761640
 137.3643520  58.3148850  42.0167150 136.6324640  58.8235660  42.3657250
 136.9667860  57.4978830  41.7155930 133.8020910  54.9903050  40.4219640
 133.8056970  54.5493000  39.5724180 134.6972030  55.3120380  40.5291460
 129.6523290  54.8729540  39.3813850 129.3123340  55.3504770  40.1380900
 128.8900610  54.4194660  39.0214950 133.8641060  55.9915130  33.4126400
 133.9853880  55.9501610  34.3612220 133.4789570  56.8539280  33.2573130
 137.8269430  53.7682530  41.4290090 137.8442170  54.2191180  42.2731940
 137.5785010  52.8688170  41.6423530 132.8762560  58.3016270  32.8109700
 132.3079460  57.8534520  32.1845610 133.5851560  58.6609050  32.2774850
 141.2540180  51.1814710  47.2676470 141.5785950  50.4504370  47.7934450
 141.2896690  50.8628350  46.3657460 127.9531740  62.2028290  46.6876430
 127.5686530  61.5621960  47.2859390 128.2643930  62.9064410  47.2571160
 134.1028880  59.0504830  42.1685050 134.4699010  58.5763400  42.9146390
 133.9133940  59.9246400  42.5093390 126.9669370  53.7948520  38.2978520
 126.6816290  53.4304190  39.1357140 126.9048230  53.0628980  37.6841660
 131.8928250  58.0913470  44.4869260 131.5885320  58.9705450  44.7119620
 132.8474710  58.1513260  44.5226700 130.4210040  62.2974460  35.0836110
 129.6472300  61.7572080  34.9234830 131.1504670  61.7781070  34.7453870
 141.1798020  61.2939820  40.8762500 141.8997140  61.7895110  40.4858610
 140.9779840  60.6157710  40.2316370 136.6407960  52.6877780  35.0191890
 135.8272570  52.1890950  34.9437200 136.4469910  53.5276030  34.6028240
 136.5616820  61.3648880  46.7631500 136.4954130  60.4444550  46.5089090
 135.9321960  61.4624320  47.4776140 139.3556350  57.0597430  33.3154050
 140.2435970  57.3714660  33.1405390 139.3261440  56.1869680  32.9234630
 130.4647440  61.9654840  38.7214920 130.9826110  61.1623100  38.6671810
 130.0131460  61.9033980  39.5631750 135.3516940  63.2321120  33.9942220
 135.6932640  63.9763350  33.4985540 134.5229650  63.5452240  34.3567050
 127.9491980  58.9316210  45.6340620 127.5906920  59.5970060  46.2213960
 127.6546540  58.0999760  46.0053240 131.1505100  59.3900450  48.5180170
 130.8505240  59.5357630  47.6207990 131.9216340  58.8305740  48.4253560
 136.4933550  64.1869450  46.5135300 136.5078090  63.2550410  46.2954210
 135.7858650  64.2729210  47.1525070 141.6270620  58.3709270  32.7833910
 141.5434340  58.8023490  31.9330350 142.3464810  58.8307620  33.2160730
 142.7044760  60.8276790  45.8603880 141.9792950  61.4205570  45.6633270
 143.2320220  60.8200330  45.0617250 142.6557870  65.2251530  35.5116040
 142.0134030  64.5707150  35.7859760 142.2688530  65.6306620  34.7356710
 138.2344350  62.5536960  39.3587730 138.5868170  61.9565090  38.6989100
 137.3506680  62.2281190  39.5295980 134.3207630  63.3134650  36.7658140
 135.0078760  63.8603860  37.1465730 133.5340050  63.8575380  36.8007750
 126.4600030  58.9307470  32.2575220 127.3294880  59.2132270  32.5411140
 125.9690350  59.7443340  32.1424030 133.6234840  60.3180680  36.3783500
 134.0797620  61.1285930  36.6043690 133.2723050  60.0003820  37.2101990
 135.9267450  65.8287020  43.6075800 136.5709670  66.0346400  44.2849220
 136.2896890  65.0675420  43.1546650 129.5246620  50.6618330  36.8506020
 129.3961250  50.6536230  37.7990940 128.7008640  51.0001420  36.4997030
 137.1999530  63.8319370  42.3253250 137.8421760  63.1312530  42.4385420
 137.7248880  64.6117810  42.1450140 141.0455250  64.1167990  32.0492390
 140.8192830  63.3998430  32.6417030 140.6551450  63.8680430  31.2114140
 138.9737150  64.6314270  45.5289310 139.3093390  65.2180960  46.2067230
 138.0537490  64.5006980  45.7587100 126.8271280  68.1434850  32.8236850
 127.1868920  68.7424190  32.1694120 126.6863620  68.6894740  33.5971880
 126.5240550  52.4209450  46.3112720 125.8099070  52.6206370  46.9165330
 126.9435590  51.6449020  46.6827520 140.6271500  62.0339930  33.7106550
 140.3393200  62.4952620  34.4984430 141.4223670  61.5737700  33.9790770
 126.8113140  66.4089710  47.2979250 126.9204260  65.4684450  47.1574640
 126.1593700  66.6744460  46.6492980 134.8025730  64.6805600  48.6977370
 134.4822600  63.9614840  49.2423060 134.1284090  65.3560670  48.7713430
 132.8439900  65.5266050  33.6410520 132.8350000  66.2595740  33.0255030
 131.9238260  65.2797630  33.7337480 128.4446540  60.7480940  34.3857280
 127.8374490  61.4879840  34.3952580 128.9195890  60.8380300  33.5595480
 138.0179330  54.9131760  44.0614170 138.3860150  54.0926970  44.3893740
 137.1577530  54.9733650  44.4769820 141.3841360  53.8688700  34.8701730
 140.7554520  53.9734370  34.1559960 140.8893280  54.0885480  35.6595610
 135.8299500  65.5894290  32.3035710 135.9311480  65.3858280  31.3737690
 134.9301240  65.3352570  32.5083490 133.3525390  56.1474650  36.2859610
 132.6441540  56.6160990  36.7273220 133.6369870  55.4896660  36.9204800
 134.9781320  57.5671350  44.2852140 135.4766570  58.0417170  44.9503990
 135.1204270  56.6434870  44.4922170 137.3840820  52.8725310  37.7255400
 137.2608600  52.8911440  36.7764910 138.3325380  52.9204250  37.8453800
 134.4717610  68.1080610  36.9983380 134.7259110  68.0702000  36.0762750
 133.5230090  67.9813940  36.9911630 131.5560410  54.4559730  33.6610320
 132.4050940  54.8929880  33.5950510 131.1891680  54.7679990  34.4882380
 142.1848180  53.7839310  45.1280530 141.6821780  54.5244710  45.4674340
 143.0004840  54.1723310  44.8117320 140.4770190  59.0272490  38.5741890
 139.5360330  59.0422720  38.7489580 140.7914260  58.2408450  39.0202190
 130.4551830  60.7092090  32.1345850 131.2215100  60.5973450  32.6971280
 130.5326520  60.0130060  31.4822620 129.1498590  58.1417160  32.8178740
 129.2302180  57.1944670  32.9296140 130.0418340  58.4724040  32.9239400
 142.4795770  66.1981340  40.2496150 142.6043190  67.0212510  40.7219960
 143.3461330  65.9872070  39.9020300 129.9513300  68.2912550  39.9213280
 130.6875780  67.7428010  40.1921850 130.3354220  69.1568560  39.7819270
 126.8358780  64.3586120  35.7954790 125.9098560  64.6007260  35.7860200
 127.3015210  65.1860380  35.6739540 128.9571580  67.4758620  49.1098860
 129.7584310  67.7970670  49.5234260 128.4423400  67.1154200  49.8318770
 133.0615610  67.4642860  31.7438850 133.8544220  67.7531690  31.2920640
 132.5419960  67.0335030  31.0651330 137.7936210  63.5838490  49.0574270
 137.1874370  63.6070090  48.3170020 137.4890320  62.8521530  49.5941520
 139.2236580  67.3118780  47.6683680 140.1758330  67.2276800  47.6183920
 139.0764800  67.9760490  48.3417470 142.1145780  66.6912990  33.1675590
 141.8287290  66.2778130  32.3529770 141.9165330  67.6200700  33.0476110
 126.6769390  59.9632080  48.0534910 127.1808410  59.3839360  48.6251140
 125.9376810  60.2472310  48.5911280 133.5793010  62.6846270  31.6081200
 133.4743650  62.0698620  32.3342580 133.4117230  62.1612160  30.8244210
 133.7307330  61.3703070  47.5870430 132.9653000  61.9388070  47.5025100
 133.9123290  61.0779280  46.6938660 136.8195740  61.7466300  32.2123190
 136.2705840  62.1935600  32.8565930 137.4415000  61.2415550  32.7360860
 140.8730680  63.1008400  48.1445450 141.6140150  63.4384160  47.6412910
 140.1103360  63.2700460  47.5915220 128.7092470  58.1061670  48.9484980
 128.7497810  57.8075540  49.8570210 129.5637970  58.5069280  48.7892500
 132.4870860  60.7057220  34.1088490 132.9087280  60.5397090  34.9519880
 132.6121700  59.8957450  33.6143630 130.6498280  56.6853770  46.9159470
 130.1194740  56.1944720  46.2882810 131.3186350  57.1137970  46.3817400
 134.9998500  59.7294830  31.3565590 135.5204160  59.0143850  30.9906740
 135.6466900  60.3680700  31.6566100 139.5476340  61.1523230  46.6800660
 139.9617360  61.3068310  47.5291080 138.6127340  61.2778450  46.8426440
 140.0198510  58.4919390  48.6839810 140.6019280  57.7371710  48.5960290
 140.1960280  59.0226830  47.9071290 131.1370580  53.6516140  46.9956760
 131.0427450  53.0336890  46.2707630 130.5567970  54.3782430  46.7686670
 133.9032020  52.2089380  44.0284150 133.4549320  52.2313640  43.1829700
 133.2697220  51.8108400  44.6254450 134.3091570  61.1043710  44.6496590
 134.7279680  61.9476440  44.4772830 133.3900200  61.2415750  44.4203370
 136.6455470  58.8359890  46.0334430 136.7651680  58.2401030  46.7729270
 137.5049470  58.8729580  45.6135730 138.9843370  59.3897080  44.6096940
 138.4578590  59.9139700  44.0062080 139.3274710  60.0224470  45.2406670
 131.3829760  56.7790450  31.0546650 131.1818820  55.9157810  31.4159990
 131.2121810  56.6923810  30.1168250 132.1598990  67.4096720  45.7654320
 131.6220080  68.1342780  45.4463020 132.4132950  66.9327060  44.9751660
 133.4124240  55.3781240  47.2910250 134.0023930  55.0697090  47.9788070
 132.5944480  54.9060990  47.4470150 138.2317670  54.9947050  47.5243270
 137.5433190  54.3328590  47.4593260 138.9523690  54.5485320  47.9691730
 138.8618070  51.5898680  33.5833530 139.1420360  50.7466580  33.9392950
 138.0883800  51.8221790  34.0972280 130.1812560  53.8791070  31.0424530
 130.4838460  53.8858500  30.1343680 130.9207150  53.5288930  31.5392190
 135.0161200  68.6447930  46.0240970 134.9419900  69.5483070  46.3313340
 134.1140040  68.3259830  45.9963040 133.3997490  52.8225690  32.0280730
 133.0519490  52.1449680  31.4483180 133.6010260  52.3615200  32.8424120
 135.5646530  67.8106440  33.6467330 136.4597320  68.1491410  33.6686090
 135.5964160  67.0885850  33.0191610 129.2042690  63.1833490  31.8754330
 129.6417560  63.7263160  32.5311910 129.6890420  62.3580440  31.8850670
 126.4188490  65.9722520  39.3274590 126.7491500  65.1043580  39.0953230
 126.8479490  66.1781040  40.1579550 131.0150410  64.3031530  36.9876560
 130.7145950  64.1796500  37.8880470 130.9087900  63.4440120  36.5792290
 126.9078700  66.8393110  42.0656220 126.4709690  67.0193910  42.8980370
 127.4756380  67.5967730  41.9237940 142.5440880  66.3410110  46.3533530
 141.9442870  66.4002670  45.6097450 142.6734780  65.4015090  46.4830380
 143.7842330  64.0827930  31.6903240 142.9535290  64.1504580  32.1610470
 143.9614160  64.9732050  31.3870100 143.2398790  60.8275410  34.1937440
 144.0017700  61.3972060  34.2997130 143.2553160  60.2602610  34.9645750
 126.7403130  59.3513340  38.4245100 126.0851970  59.0824980  37.7804800
 127.5781080  59.2417820  37.9747080 144.2458760  61.6825510  39.0379370
 144.6167590  60.8992830  38.6315340 144.8860690  62.3714610  38.8596670
 141.2292520  63.0662090  44.4509690 140.4152360  63.4959250  44.7135480
 141.6366720  63.6780500  43.8378740 143.2917960  61.1209780  31.3509960
 143.5666800  62.0288660  31.2229180 143.1028700  61.0572310  32.2871950
 139.6893570  54.1454630  32.6463590 140.1078450  53.9585610  31.8060250
 139.3829630  53.2933680  32.9566520 143.1883300  59.0578770  36.3439390
 142.8126900  58.2906700  35.9120680 142.4586420  59.4401470  36.8314320
 127.7779060  59.7365910  42.9648440 128.1452100  59.6493310  43.8444460
 127.2089880  58.9732460  42.8655300 142.5782920  58.2050290  45.9778910
 142.3469010  57.9763040  45.0776860 142.8387470  59.1249840  45.9323800
 127.3295060  56.6475000  46.8706860 126.4351110  56.6141760  47.2100570
 127.8692610  56.8461790  47.6358110 141.0170990  53.4306720  48.7558610
 141.8941170  53.4390120  49.1392610 141.0291830  52.6937560  48.1450960
 125.9541210  56.5612270  34.3670430 125.0505290  56.8242470  34.1922090
 126.4381830  56.8323440  33.5870390 142.4634260  57.2836260  39.6446630
 142.9871740  56.7898910  39.0136800 143.0493680  57.4186620  40.3894200
 142.6423980  57.3676130  43.1666180 141.6926690  57.3339670  43.2811170
 142.8236990  58.2776240  42.9315950 128.4968420  55.6177810  32.2764810
 129.2060120  55.1961030  31.7912090 127.7808360  55.6853040  31.6448160
 128.1442580  51.6717140  31.3167460 128.8670710  52.2126080  31.6348680
 128.4167100  51.3980560  30.4409000 141.9534230  56.5409610  35.5839040
 142.4493350  56.3080480  36.3687920 141.7550300  55.7021450  35.1676680
 127.8334770  50.9223330  41.2190080 128.4810960  50.3720710  40.7785240
 128.2536610  51.1766480  42.0405890 143.3821390  55.1770560  38.1176720
 143.2720670  55.0226600  39.0558990 144.1428980  54.6491500  37.8752130
 141.7287110  51.1164690  44.5759720 142.3659330  51.7298830  44.9418910
 141.8762000  51.1525350  43.6308950 144.2711660  53.0078480  31.3582860
 145.1960970  52.8759660  31.1501150 144.2487450  53.0871300  32.3119310
 144.3450150  53.7789140  33.9839570 143.5501650  53.7134260  34.5132480
 144.5493430  54.7139780  33.9724920 141.2868570  67.8180690  37.9777960
 141.8827640  67.4965260  37.3012380 141.5446720  67.3452510  38.7691230
 127.5866770  51.0779000  43.9615400 127.2381590  51.5342820  44.7273580
 127.2554470  50.1836130  44.0437830 129.1931140  64.2498600  48.1268590
 129.1500770  63.8791510  49.0083050 129.3242150  65.1876170  48.2670410
 132.8937170  65.8058190  43.7278310 132.6528530  66.0732750  42.8408830
 133.8339810  65.9763920  43.7829170 135.0991590  52.2690880  47.4834820
 135.0380480  52.8612710  48.2330230 136.0391970  52.1616840  47.3385080
 137.7366150  51.9260940  47.1227110 138.3506560  52.2440230  46.4608190
 138.2815710  51.4409530  47.7422970 144.1541330  67.8252570  44.5288950
 143.6599610  68.2221440  43.8116080 143.5454620  67.2001780  44.9226230
 128.2587410  50.6055200  47.2366170 128.8070400  50.4243250  46.4732280
 128.3242720  49.8149310  47.7722480 129.0319170  67.1960850  45.2466370
 128.4379490  67.0645550  45.9856410 129.0243010  66.3598990  44.7808470
 138.4774190  50.4893080  43.4496400 137.6034030  50.8228190  43.2469330
 138.3684940  50.0166260  44.2748270 139.3846170  52.6963950  44.8338120
 139.0559530  51.8815710  44.4539850 140.3328470  52.6533760  44.7103810
 141.8380780  68.4675990  41.8075690 141.3783750  69.2191800  41.4333710
 141.2093240  67.7482460  41.7490490 128.6631400  64.5619230  44.1974410
 127.9365460  63.9424520  44.1300360 128.7240550  64.9559840  43.3272490
 132.2676500  66.7764230  40.9823820 132.7841520  66.1651590  40.4572080
 132.9173880  67.2793010  41.4734830 135.0072000  67.6672720  41.8092800
 135.2949810  67.4127020  40.9325810 135.5195220  67.1150080  42.3998370
 136.2249010  51.4062920  42.3889310 135.4420800  51.8808420  42.6686070
 135.9311940  50.5017750  42.2802490 140.7770080  52.1086020  40.4338400
 141.2178170  52.0531120  39.5860000 140.5077670  53.0244030  40.5048580
 142.6408650  51.7401260  38.4447220 142.5797050  50.7962480  38.2978240
 143.4200680  51.8481350  38.9900680 126.9461400  67.8793620  37.4071170
 126.7783440  67.2464300  38.1053060 126.0795910  68.0853020  37.0565360
 127.5689420  51.7110400  34.9103030 128.3268780  51.8239280  34.3367060
 127.1066590  52.5479600  34.8646460 134.1103230  53.8249670  37.9005340
 133.2977740  53.4506560  37.5601220 134.6144870  53.0694750  38.2026530
 138.6128210  50.4892120  39.1388410 139.2157580  51.0612330  39.6136930
 137.8721200  51.0531560  38.9162310 141.7562810  50.8913680  34.4128690
 141.9513440  51.7897130  34.6796120 140.9692680  50.6600760  34.9061640
 128.5524100  66.5726850  34.8521310 128.0271720  66.9534880  34.1483270
 128.4768680  67.1977620  35.5731020 129.9414570  52.2374450  33.4505000
 130.4707330  51.4504250  33.3212950 130.5742890  52.9165640  33.6840530
 132.1352410  51.9749590  36.5050390 131.5055150  51.2736900  36.6720520
 131.5957550  52.7353720  36.2883550 135.0744360  68.5888820  49.1761000
 136.0011670  68.3533090  49.2196960 135.0594790  69.4160820  48.6947030
 143.3089420  68.1314390  36.1735250 143.4841610  67.4452130  35.5296170
 142.6110990  68.6561440  35.7811920 132.2607970  51.2533570  48.9402880
 131.9792240  51.7567170  48.1763700 132.6427670  50.4555320  48.5745010
 131.1517070  68.5209230  33.7270560 131.8835890  68.2368510  33.1794450
 131.4110740  68.2822510  34.6169940 130.3131860  64.6373960  33.7316890
 129.6840740  65.1059060  34.2802720 130.4279690  63.7923180  34.1663080
 138.8623430  50.6687150  49.5183350 138.7488880  50.9881760  50.4134870
 139.6793170  51.0699660  49.2220630 141.6421920  67.8158680  49.0002040
 142.4347240  67.3207910  48.7928000 141.9355070  68.4948820  49.6077650
 137.7681580  58.6879620  19.8818090 137.6875630  57.7734230  19.6109800
 137.3546000  59.1846690  19.1757800 135.8999620  60.4658640  21.7627360
 135.1241720  59.9859080  22.0525930 136.5512550  59.7864290  21.5883520
 129.9165450  60.7778450  22.6403120 129.0850330  60.5227160  23.0399630
 130.5246430  60.8489220  23.3761040 139.9207050  64.8718830  20.5426490
 139.4588580  64.1006070  20.8713660 140.7332600  64.8984900  21.0478940
 129.8966710  64.8118540  22.8361140 130.1994750  63.9216280  22.6571360
 130.6410300  65.3688760  22.6083390 128.3257400  55.7380340  16.4245510
 127.4374100  56.0796310  16.3225390 128.6098590  55.5380660  15.5326340
 126.2890410  58.3385990  22.3085210 126.8606520  57.5708190  22.3088850
 126.2891950  58.6374750  21.3991820 136.1470360  67.1576840  20.1630480
 135.5281800  67.6134340  19.5924920 137.0022140  67.3128300  19.7620180
 135.3408610  63.1415830  21.7697520 135.2716890  62.2005770  21.6086650
 136.1028470  63.2317240  22.3420090 127.5315280  53.7470350  24.0954140
 127.3518120  52.8496100  24.3756900 127.1295360  54.2942220  24.7701090
 136.3713780  55.9486210  21.9966450 136.7478600  55.0758090  21.8840120
 136.2733290  56.2844910  21.1056890 130.5018790  54.3211840  17.4583890
 130.6085540  55.2215570  17.7652650 129.5911150  54.2729810  17.1678540
 140.1537900  53.4436650  18.9294790 140.9747520  52.9533220  18.9720270
 140.1871980  54.0334310  19.6826630 128.1501950  56.2430850  22.7036480
 128.8312060  56.5069220  23.3223880 127.8350000  55.4031720  23.0374490
 132.3426520  57.2898210  21.7909070 132.8504740  57.7879180  22.4314090
 132.8739760  56.5133410  21.6148430 144.4437450  55.4603400  25.4938420
 143.7389620  55.8485110  24.9753530 144.7095370  56.1553690  26.0959350
 130.6262620  51.9296770  26.0572490 130.6281060  52.4469160  25.2518390
 129.7966930  51.4526950  26.0342420 137.0133710  62.0416080  17.5562390
 136.3950980  62.5065530  16.9925110 137.5256960  62.7343560  17.9731900
 131.8765470  61.5691950  24.2345990 131.5434850  62.1960870  24.8767060
 132.0532150  62.0953830  23.4547660 140.3899380  55.3837030  21.7022330
 139.6854950  55.6721920  22.2825440 140.7511540  56.1937140  21.3421890
 130.3077950  53.6406730  24.0642940 130.6494760  54.4848780  23.7696810
 129.3693760  53.7890470  24.1808280 131.0884570  63.5372750  26.0495170
 131.7058570  64.2123830  25.7679620 130.2277690  63.9460730  25.9582670
 126.3816910  62.7272610  14.9302020 126.0044890  63.2159710  14.1986920
 126.6389980  63.3997890  15.5608550 142.0062160  65.0012160  23.9649810
 141.3225680  65.6711270  23.9566480 142.5456450  65.1992810  23.1994670
 143.4586300  54.8291820  22.0931540 142.5111210  54.8630800  22.2246970
 143.7836290  55.6430770  22.4780900 133.9905840  51.1289000  20.3887530
 134.2980820  50.5735890  19.6723030 133.0606540  51.2633460  20.2060520
 139.5420900  66.8456290  22.6794990 139.5548060  66.4418580  21.8117250
 138.9896120  67.6203580  22.5756420 140.8366320  63.5672510  17.7685160
 140.7262650  62.6246840  17.8934580 140.8334570  63.9288150  18.6547920
 138.9406340  61.7486130  24.0077600 139.3575130  61.5346240  23.1731060
 139.6646160  62.0058920  24.5786220 136.3786600  59.1937830  17.1247650
 135.4515880  59.1275210  17.3536120 136.5311420  60.1317960  17.0102890
 136.3655680  55.4654830  14.1214810 135.4259350  55.6268790  14.2067270
 136.6838940  56.1840510  13.5750800 142.8868440  60.1473350  24.0993840
 142.0587070  60.2166440  23.6243970 143.4818920  60.7327660  23.6309670
 140.4083890  60.7558130  17.6282900 139.7896310  60.4177680  16.9809200
 140.3908340  60.1117890  18.3362090 139.8510450  56.9342670  25.0448710
 139.4381630  57.7596380  25.2988700 139.1186400  56.3487710  24.8525070
 131.9843240  59.7202570  19.9067380 131.5800240  59.0079820  19.4113280
 132.0706360  59.3755810  20.7955420 132.4524940  63.4070130  22.0706590
 132.1553230  62.8015600  21.3914370 133.4024760  63.4447440  21.9595950
 130.6971860  56.4945780  23.6866420 131.2486450  56.6041120  22.9119670
 131.2115370  56.8683380  24.4021650 140.5410550  66.9802000  25.7329690
 140.0641110  67.7874190  25.5402300 139.8572340  66.3280330  25.8855900
 131.5443370  63.1451820  28.7214390 130.6471900  63.3691790  28.9687790
 131.5696240  63.2686760  27.7725790 138.5848590  59.9944940  14.6355650
 139.0241870  59.1567370  14.4893470 139.2977010  60.6274340  14.7219790
 130.3714590  60.0165140  27.2971760 130.2322360  60.8887940  27.6659160
 129.4895950  59.6737950  27.1519700 136.6943970  64.9341010  18.6036890
 137.1339880  65.6765340  18.1892280 136.6330860  65.1767580  19.5275850
 132.1694940  65.9586840  29.5056910 132.1410370  66.3629790  28.6385340
 132.0059910  65.0297200  29.3428510 142.1665730  51.2487750  12.9496690
 141.8538390  51.3414580  13.8495760 142.9278200  51.8268780  12.8994120
 128.6847870  58.6147550  17.4074030 128.5645470  59.3409640  16.7955300
 128.3748760  57.8450460  16.9301940 144.1209760  66.7413940  30.8021080
 144.5969480  67.2196830  31.4810160 144.7416920  66.6731430  30.0766580
 126.3233240  61.7862690  23.2142670 126.4013660  61.9211460  22.2698390
 126.9374920  61.0778580  23.4070790 127.5680870  63.4862880  19.6248850
 127.1608950  63.6277470  18.7702450 128.4593880  63.2023040  19.4220060
 143.5243010  63.9326790  27.9621090 143.6506070  63.6938670  27.0438270
 143.5664390  63.1011330  28.4343170 137.3859750  67.6354790  26.5315900
 137.9004420  67.5462800  27.3338330 136.5428830  67.9814490  26.8243810
 139.3614150  67.9210130  15.9599900 139.2015290  67.6313070  16.8581730
 139.1960860  67.1450260  15.4245130 131.8402530  67.7008660  17.7371520
 131.6645010  66.7844200  17.5239320 130.9858270  68.0595950  17.9769320
 139.0640280  65.4297690  14.5197900 138.3705440  65.4274980  13.8600180
 139.8063140  65.0057010  14.0892070 138.6290210  67.0560400  18.5946390
 139.0847160  66.2749780  18.9085010 138.9682730  67.7667220  19.1387570
 143.3767020  55.9859250  28.9270830 142.7611290  56.4938920  28.3986290
 143.0563440  55.0857580  28.8696770 126.3792760  62.8276860  25.7537130
 126.5423800  62.3582220  24.9356500 126.8445210  62.3200420  26.4185970
 131.1511530  51.9582620  20.7897700 130.7079680  52.7392160  20.4582220
 131.7096520  52.2812510  21.4968640 135.4381340  54.8251140  26.3933020
 134.9760710  55.0334160  27.2052960 135.0359450  54.0110490  26.0903690
 140.4385850  56.0460090  27.5229680 139.5879440  55.7465840  27.8438750
 140.2787640  56.2902100  26.6113500 137.5335560  57.5461840  29.6228470
 137.8588970  56.7125590  29.2830700 138.3215890  58.0690360  29.7706800
 134.2670350  51.5793320  15.6703530 133.6424530  51.5753190  16.3956840
 134.1800470  50.7124280  15.2739500 133.1887430  52.5029950  22.6487300
 133.4859760  53.4092780  22.5679320 133.7372990  52.0148730  22.0346870
 130.9425750  57.0816190  18.5178950 130.7166670  56.8653360  19.4225570
 130.1618280  57.5144650  18.1724920 138.1723510  57.0879560  17.1169600
 137.5732400  57.8115360  16.9333220 138.7203120  57.0256340  16.3346050
 133.3824960  57.9801770  29.1839220 133.2868560  57.0396500  29.0339620
 134.2256940  58.2016840  28.7887290 136.7788380  55.7243100  19.1472880
 137.1717950  56.0415300  18.3341570 137.1405230  54.8454980  19.2617400
 128.5135500  54.3915440  27.3373000 128.1198890  55.2390650  27.5445780
 127.8253900  53.7541810  27.5281640 135.0880550  54.4750410  30.4069740
 134.3978870  54.2822610  31.0415830 135.8312850  54.7585050  30.9394040
 125.8152550  52.3143900  21.3703080 125.5265600  52.8846760  22.0828060
 126.5598310  51.8348350  21.7334310 126.0022780  56.2564020  12.5805800
 125.9197450  57.1994780  12.7220790 125.6505840  56.1138930  11.7018150
 137.3643520  58.3148850  23.2423660 136.6324640  58.8235660  23.5913760
 136.9667860  57.4978830  22.9412440 133.8020910  54.9903050  21.6476150
 133.8056970  54.5493000  20.7980690 134.6972030  55.3120380  21.7547970
 129.6523290  54.8729540  20.6070360 129.3123340  55.3504770  21.3637410
 128.8900610  54.4194660  20.2471460 133.8641060  55.9915130  14.6382910
 133.9853880  55.9501610  15.5868730 133.4789570  56.8539280  14.4829640
 137.8269430  53.7682530  22.6546600 137.8442170  54.2191180  23.4988450
 137.5785010  52.8688170  22.8680040 132.8762560  58.3016270  14.0366210
 132.3079460  57.8534520  13.4102120 133.5851560  58.6609050  13.5031360
 141.2540180  51.1814710  28.4932980 141.5785950  50.4504370  29.0190960
 141.2896690  50.8628350  27.5913970 127.9531740  62.2028290  27.9132940
 127.5686530  61.5621960  28.5115900 128.2643930  62.9064410  28.4827670
 134.1028880  59.0504830  23.3941560 134.4699010  58.5763400  24.1402900
 133.9133940  59.9246400  23.7349900 126.9669370  53.7948520  19.5235030
 126.6816290  53.4304190  20.3613650 126.9048230  53.0628980  18.9098170
 131.8928250  58.0913470  25.7125770 131.5885320  58.9705450  25.9376130
 132.8474710  58.1513260  25.7483210 130.4210040  62.2974460  16.3092620
 129.6472300  61.7572080  16.1491340 131.1504670  61.7781070  15.9710380
 141.1798020  61.2939820  22.1019010 141.8997140  61.7895110  21.7115120
 140.9779840  60.6157710  21.4572880 136.6407960  52.6877780  16.2448400
 135.8272570  52.1890950  16.1693710 136.4469910  53.5276030  15.8284750
 136.5616820  61.3648880  27.9888010 136.4954130  60.4444550  27.7345600
 135.9321960  61.4624320  28.7032650 139.3556350  57.0597430  14.5410560
 140.2435970  57.3714660  14.3661900 139.3261440  56.1869680  14.1491140
 130.4647440  61.9654840  19.9471430 130.9826110  61.1623100  19.8928320
 130.0131460  61.9033980  20.7888260 135.3516940  63.2321120  15.2198730
 135.6932640  63.9763350  14.7242050 134.5229650  63.5452240  15.5823560
 127.9491980  58.9316210  26.8597130 127.5906920  59.5970060  27.4470470
 127.6546540  58.0999760  27.2309750 131.1505100  59.3900450  29.7436680
 130.8505240  59.5357630  28.8464500 131.9216340  58.8305740  29.6510070
 136.4933550  64.1869450  27.7391810 136.5078090  63.2550410  27.5210720
 135.7858650  64.2729210  28.3781580 141.6270620  58.3709270  14.0090420
 141.5434340  58.8023490  13.1586860 142.3464810  58.8307620  14.4417240
 142.7044760  60.8276790  27.0860390 141.9792950  61.4205570  26.8889780
 143.2320220  60.8200330  26.2873760 142.6557870  65.2251530  16.7372550
 142.0134030  64.5707150  17.0116270 142.2688530  65.6306620  15.9613220
 138.2344350  62.5536960  20.5844240 138.5868170  61.9565090  19.9245610
 137.3506680  62.2281190  20.7552490 134.3207630  63.3134650  17.9914650
 135.0078760  63.8603860  18.3722240 133.5340050  63.8575380  18.0264260
 126.4600030  58.9307470  13.4831730 127.3294880  59.2132270  13.7667650
 125.9690350  59.7443340  13.3680540 133.6234840  60.3180680  17.6040010
 134.0797620  61.1285930  17.8300200 133.2723050  60.0003820  18.4358500
 135.9267450  65.8287020  24.8332310 136.5709670  66.0346400  25.5105730
 136.2896890  65.0675420  24.3803160 137.1999530  63.8319370  23.5509760
 137.8421760  63.1312530  23.6641930 137.7248880  64.6117810  23.3706650
 141.0455250  64.1167990  13.2748900 140.8192830  63.3998430  13.8673540
 140.6551450  63.8680430  12.4370650 138.9737150  64.6314270  26.7545820
 139.3093390  65.2180960  27.4323740 138.0537490  64.5006980  26.9843610
 126.8271280  68.1434850  14.0493360 127.1868920  68.7424190  13.3950630
 126.6863620  68.6894740  14.8228390 126.5240550  52.4209450  27.5369230
 125.8099070  52.6206370  28.1421840 126.9435590  51.6449020  27.9084030
 140.6271500  62.0339930  14.9363060 140.3393200  62.4952620  15.7240940
 141.4223670  61.5737700  15.2047280 126.8113140  66.4089710  28.5235760
 126.9204260  65.4684450  28.3831150 126.1593700  66.6744460  27.8749490
 134.8025730  64.6805600  29.9233880 134.4822600  63.9614840  30.4679570
 134.1284090  65.3560670  29.9969940 132.8439900  65.5266050  14.8667030
 132.8350000  66.2595740  14.2511540 131.9238260  65.2797630  14.9593990
 128.4446540  60.7480940  15.6113790 127.8374490  61.4879840  15.6209090
 128.9195890  60.8380300  14.7851990 138.0179330  54.9131760  25.2870680
 138.3860150  54.0926970  25.6150250 137.1577530  54.9733650  25.7026330
 141.3841360  53.8688700  16.0958240 140.7554520  53.9734370  15.3816470
 140.8893280  54.0885480  16.8852120 135.8299500  65.5894290  13.5292220
 135.9311480  65.3858280  12.5994200 134.9301240  65.3352570  13.7340000
 133.3525390  56.1474650  17.5116120 132.6441540  56.6160990  17.9529730
 133.6369870  55.4896660  18.1461310 134.9781320  57.5671350  25.5108650
 135.4766570  58.0417170  26.1760500 135.1204270  56.6434870  25.7178680
 137.3840820  52.8725310  18.9511910 137.2608600  52.8911440  18.0021420
 138.3325380  52.9204250  19.0710310 134.4717610  68.1080610  18.2239890
 134.7259110  68.0702000  17.3019260 133.5230090  67.9813940  18.2168140
 131.5560410  54.4559730  14.8866830 132.4050940  54.8929880  14.8207020
 131.1891680  54.7679990  15.7138890 142.1848180  53.7839310  26.3537040
 141.6821780  54.5244710  26.6930850 143.0004840  54.1723310  26.0373830
 140.4770190  59.0272490  19.7998400 139.5360330  59.0422720  19.9746090
 140.7914260  58.2408450  20.2458700 130.4551830  60.7092090  13.3602360
 131.2215100  60.5973450  13.9227790 130.5326520  60.0130060  12.7079130
 129.1498590  58.1417160  14.0435250 129.2302180  57.1944670  14.1552650
 130.0418340  58.4724040  14.1495910 142.4795770  66.1981340  21.4752660
 142.6043190  67.0212510  21.9476470 143.3461330  65.9872070  21.1276810
 129.9513300  68.2912550  21.1469790 130.6875780  67.7428010  21.4178360
 130.3354220  69.1568560  21.0075780 126.8358780  64.3586120  17.0211300
 125.9098560  64.6007260  17.0116710 127.3015210  65.1860380  16.8996050
 128.9571580  67.4758620  30.3355370 129.7584310  67.7970670  30.7490770
 128.4423400  67.1154200  31.0575280 133.0615610  67.4642860  12.9695360
 133.8544220  67.7531690  12.5177150 132.5419960  67.0335030  12.2907840
 137.7936210  63.5838490  30.2830780 137.1874370  63.6070090  29.5426530
 137.4890320  62.8521530  30.8198030 139.2236580  67.3118780  28.8940190
 140.1758330  67.2276800  28.8440430 139.0764800  67.9760490  29.5673980
 142.1145780  66.6912990  14.3932100 141.8287290  66.2778130  13.5786280
 141.9165330  67.6200700  14.2732620 126.6769390  59.9632080  29.2791420
 127.1808410  59.3839360  29.8507650 125.9376810  60.2472310  29.8167790
 133.5793010  62.6846270  12.8337710 133.4743650  62.0698620  13.5599090
 133.4117230  62.1612160  12.0500720 133.7307330  61.3703070  28.8126940
 132.9653000  61.9388070  28.7281610 133.9123290  61.0779280  27.9195170
 136.8195740  61.7466300  13.4379700 136.2705840  62.1935600  14.0822440
 137.4415000  61.2415550  13.9617370 140.8730680  63.1008400  29.3701960
 141.6140150  63.4384160  28.8669420 140.1103360  63.2700460  28.8171730
 128.7092470  58.1061670  30.1741490 128.7497810  57.8075540  31.0826720
 129.5637970  58.5069280  30.0149010 132.4870860  60.7057220  15.3345000
 132.9087280  60.5397090  16.1776390 132.6121700  59.8957450  14.8400140
 130.6498280  56.6853770  28.1415980 130.1194740  56.1944720  27.5139320
 131.3186350  57.1137970  27.6073910 134.9998500  59.7294830  12.5822100
 135.5204160  59.0143850  12.2163250 135.6466900  60.3680700  12.8822610
 139.5476340  61.1523230  27.9057170 139.9617360  61.3068310  28.7547590
 138.6127340  61.2778450  28.0682950 140.0198510  58.4919390  29.9096320
 140.6019280  57.7371710  29.8216800 140.1960280  59.0226830  29.1327800
 131.1370580  53.6516140  28.2213270 131.0427450  53.0336890  27.4964140
 130.5567970  54.3782430  27.9943180 134.3091570  61.1043710  25.8753100
 134.7279680  61.9476440  25.7029340 133.3900200  61.2415750  25.6459880
 138.9843370  59.3897080  25.8353450 138.4578590  59.9139700  25.2318590
 139.3274710  60.0224470  26.4663180 131.3829760  56.7790450  12.2803160
 131.1818820  55.9157810  12.6416500 131.2121810  56.6923810  11.3424760
 132.1598990  67.4096720  26.9910830 131.6220080  68.1342780  26.6719530
 132.4132950  66.9327060  26.2008170 133.4124240  55.3781240  28.5166760
 134.0023930  55.0697090  29.2044580 132.5944480  54.9060990  28.6726660
 138.2317670  54.9947050  28.7499780 137.5433190  54.3328590  28.6849770
 138.9523690  54.5485320  29.1948240 138.8618070  51.5898680  14.8090040
 139.1420360  50.7466580  15.1649460 138.0883800  51.8221790  15.3228790
 130.1812560  53.8791070  12.2681040 130.4838460  53.8858500  11.3600190
 130.9207150  53.5288930  12.7648700 135.0161200  68.6447930  27.2497480
 134.9419900  69.5483070  27.5569850 134.1140040  68.3259830  27.2219550
 133.3997490  52.8225690  13.2537240 133.0519490  52.1449680  12.6739690
 133.6010260  52.3615200  14.0680630 135.5646530  67.8106440  14.8723840
 136.4597320  68.1491410  14.8942600 135.5964160  67.0885850  14.2448120
 129.2042690  63.1833490  13.1010840 129.6417560  63.7263160  13.7568420
 129.6890420  62.3580440  13.1107180 126.4188490  65.9722520  20.5531100
 126.7491500  65.1043580  20.3209740 126.8479490  66.1781040  21.3836060
 131.0150410  64.3031530  18.2133070 130.7145950  64.1796500  19.1136980
 130.9087900  63.4440120  17.8048800 126.9078700  66.8393110  23.2912730
 126.4709690  67.0193910  24.1236880 127.4756380  67.5967730  23.1494450
 142.5440880  66.3410110  27.5790040 141.9442870  66.4002670  26.8353960
 142.6734780  65.4015090  27.7086890 143.7842330  64.0827930  12.9159750
 142.9535290  64.1504580  13.3866980 143.9614160  64.9732050  12.6126610
 143.2398790  60.8275410  15.4193950 144.0017700  61.3972060  15.5253640
 143.2553160  60.2602610  16.1902260 126.7403130  59.3513340  19.6501610
 126.0851970  59.0824980  19.0061310 127.5781080  59.2417820  19.2003590
 144.2458760  61.6825510  20.2635880 144.6167590  60.8992830  19.8571850
 144.8860690  62.3714610  20.0853180 141.2292520  63.0662090  25.6766200
 140.4152360  63.4959250  25.9391990 141.6366720  63.6780500  25.0635250
 143.2917960  61.1209780  12.5766470 143.5666800  62.0288660  12.4485690
 143.1028700  61.0572310  13.5128460 139.6893570  54.1454630  13.8720100
 140.1078450  53.9585610  13.0316760 139.3829630  53.2933680  14.1823030
 143.1883300  59.0578770  17.5695900 142.8126900  58.2906700  17.1377190
 142.4586420  59.4401470  18.0570830 127.7779060  59.7365910  24.1904950
 128.1452100  59.6493310  25.0700970 127.2089880  58.9732460  24.0911810
 142.5782920  58.2050290  27.2035420 142.3469010  57.9763040  26.3033370
 142.8387470  59.1249840  27.1580310 127.3295060  56.6475000  28.0963370
 126.4351110  56.6141760  28.4357080 127.8692610  56.8461790  28.8614620
 141.0170990  53.4306720  29.9815120 141.8941170  53.4390120  30.3649120
 141.0291830  52.6937560  29.3707470 125.9541210  56.5612270  15.5926940
 125.0505290  56.8242470  15.4178600 126.4381830  56.8323440  14.8126900
 142.4634260  57.2836260  20.8703140 142.9871740  56.7898910  20.2393310
 143.0493680  57.4186620  21.6150710 142.6423980  57.3676130  24.3922690
 141.6926690  57.3339670  24.5067680 142.8236990  58.2776240  24.1572460
 128.4968420  55.6177810  13.5021320 129.2060120  55.1961030  13.0168600
 127.7808360  55.6853040  12.8704670 128.1442580  51.6717140  12.5423970
 128.8670710  52.2126080  12.8605190 128.4167100  51.3980560  11.6665510
 141.9534230  56.5409610  16.8095550 142.4493350  56.3080480  17.5944430
 141.7550300  55.7021450  16.3933190 143.3821390  55.1770560  19.3433230
 143.2720670  55.0226600  20.2815500 144.1428980  54.6491500  19.1008640
 141.7287110  51.1164690  25.8016230 142.3659330  51.7298830  26.1675420
 141.8762000  51.1525350  24.8565460 144.2711660  53.0078480  12.5839370
 145.1960970  52.8759660  12.3757660 144.2487450  53.0871300  13.5375820
 144.3450150  53.7789140  15.2096080 143.5501650  53.7134260  15.7388990
 144.5493430  54.7139780  15.1981430 141.2868570  67.8180690  19.2034470
 141.8827640  67.4965260  18.5268890 141.5446720  67.3452510  19.9947740
 127.5866770  51.0779000  25.1871910 127.2381590  51.5342820  25.9530090
 127.2554470  50.1836130  25.2694340 129.1931140  64.2498600  29.3525100
 129.1500770  63.8791510  30.2339560 129.3242150  65.1876170  29.4926920
 132.8937170  65.8058190  24.9534820 132.6528530  66.0732750  24.0665340
 133.8339810  65.9763920  25.0085680 135.0991590  52.2690880  28.7091330
 135.0380480  52.8612710  29.4586740 136.0391970  52.1616840  28.5641590
 137.7366150  51.9260940  28.3483620 138.3506560  52.2440230  27.6864700
 138.2815710  51.4409530  28.9679480 144.1541330  67.8252570  25.7545460
 143.6599610  68.2221440  25.0372590 143.5454620  67.2001780  26.1482740
 128.2587410  50.6055200  28.4622680 128.8070400  50.4243250  27.6988790
 128.3242720  49.8149310  28.9978990 129.0319170  67.1960850  26.4722880
 128.4379490  67.0645550  27.2112920 129.0243010  66.3598990  26.0064980
 138.4774190  50.4893080  24.6752910 137.6034030  50.8228190  24.4725840
 138.3684940  50.0166260  25.5004780 139.3846170  52.6963950  26.0594630
 139.0559530  51.8815710  25.6796360 140.3328470  52.6533760  25.9360320
 141.8380780  68.4675990  23.0332200 141.3783750  69.2191800  22.6590220
 141.2093240  67.7482460  22.9747000 128.6631400  64.5619230  25.4230920
 127.9365460  63.9424520  25.3556870 128.7240550  64.9559840  24.5529000
 132.2676500  66.7764230  22.2080330 132.7841520  66.1651590  21.6828590
 132.9173880  67.2793010  22.6991340 135.0072000  67.6672720  23.0349310
 135.2949810  67.4127020  22.1582320 135.5195220  67.1150080  23.6254880
 136.2249010  51.4062920  23.6145820 135.4420800  51.8808420  23.8942580
 135.9311940  50.5017750  23.5059000 140.7770080  52.1086020  21.6594910
 141.2178170  52.0531120  20.8116510 140.5077670  53.0244030  21.7305090
 142.6408650  51.7401260  19.6703730 142.5797050  50.7962480  19.5234750
 143.4200680  51.8481350  20.2157190 126.9461400  67.8793620  18.6327680
 126.7783440  67.2464300  19.3309570 126.0795910  68.0853020  18.2821870
 127.5689420  51.7110400  16.1359540 128.3268780  51.8239280  15.5623570
 127.1066590  52.5479600  16.0902970 134.1103230  53.8249670  19.1261850
 133.2977740  53.4506560  18.7857730 134.6144870  53.0694750  19.4283040
 138.6128210  50.4892120  20.3644920 139.2157580  51.0612330  20.8393440
 137.8721200  51.0531560  20.1418820 141.7562810  50.8913680  15.6385200
 141.9513440  51.7897130  15.9052630 140.9692680  50.6600760  16.1318150
 128.5524100  66.5726850  16.0777820 128.0271720  66.9534880  15.3739780
 128.4768680  67.1977620  16.7987530 129.9414570  52.2374450  14.6761510
 130.4707330  51.4504250  14.5469460 130.5742890  52.9165640  14.9097040
 132.1352410  51.9749590  17.7306900 131.5055150  51.2736900  17.8977030
 131.5957550  52.7353720  17.5140060 135.0744360  68.5888820  30.4017510
 136.0011670  68.3533090  30.4453470 135.0594790  69.4160820  29.9203540
 143.3089420  68.1314390  17.3991760 143.4841610  67.4452130  16.7552680
 142.6110990  68.6561440  17.0068430 132.2607970  51.2533570  30.1659390
 131.9792240  51.7567170  29.4020210 132.6427670  50.4555320  29.8001520
 131.1517070  68.5209230  14.9527070 131.8835890  68.2368510  14.4050960
 131.4110740  68.2822510  15.8426450 130.3131860  64.6373960  14.9573400
 129.6840740  65.1059060  15.5059230 130.4279690  63.7923180  15.3919590
 138.8623430  50.6687150  30.7439860 138.7488880  50.9881760  31.6391380
 139.6793170  51.0699660  30.4477140 141.6421920  67.8158680  30.2258550
 142.4347240  67.3207910  30.0184510 141.9355070  68.4948820  30.8334160
 135.8999620  60.4658640   2.9883870 135.1241720  59.9859080   3.2782440
 136.5512550  59.7864290   2.8140030 129.9165450  60.7778450   3.8659630
 129.0850330  60.5227160   4.2656140 130.5246430  60.8489220   4.6017550
 139.9207050  64.8718830   1.7683000 139.4588580  64.1006070   2.0970170
 140.7332600  64.8984900   2.2735450 129.8966710  64.8118540   4.0617650
 130.1994750  63.9216280   3.8827870 130.6410300  65.3688760   3.8339900
 126.2890410  58.3385990   3.5341720 126.8606520  57.5708190   3.5345360
 126.2891950  58.6374750   2.6248330 135.3408610  63.1415830   2.9954030
 135.2716890  62.2005770   2.8343160 136.1028470  63.2317240   3.5676600
 127.5315280  53.7470350   5.3210650 127.3518120  52.8496100   5.6013410
 127.1295360  54.2942220   5.9957600 136.3713780  55.9486210   3.2222960
 136.7478600  55.0758090   3.1096630 136.2733290  56.2844910   2.3313400
 128.1501950  56.2430850   3.9292990 128.8312060  56.5069220   4.5480390
 127.8350000  55.4031720   4.2631000 132.3426520  57.2898210   3.0165580
 132.8504740  57.7879180   3.6570600 132.8739760  56.5133410   2.8404940
 144.4437450  55.4603400   6.7194930 143.7389620  55.8485110   6.2010040
 144.7095370  56.1553690   7.3215860 130.6262620  51.9296770   7.2829000
 130.6281060  52.4469160   6.4774900 129.7966930  51.4526950   7.2598930
 131.8765470  61.5691950   5.4602500 131.5434850  62.1960870   6.1023570
 132.0532150  62.0953830   4.6804170 140.3899380  55.3837030   2.9278840
 139.6854950  55.6721920   3.5081950 140.7511540  56.1937140   2.5678400
 130.3077950  53.6406730   5.2899450 130.6494760  54.4848780   4.9953320
 129.3693760  53.7890470   5.4064790 131.0884570  63.5372750   7.2751680
 131.7058570  64.2123830   6.9936130 130.2277690  63.9460730   7.1839180
 142.0062160  65.0012160   5.1906320 141.3225680  65.6711270   5.1822990
 142.5456450  65.1992810   4.4251180 143.4586300  54.8291820   3.3188050
 142.5111210  54.8630800   3.4503480 143.7836290  55.6430770   3.7037410
 139.5420900  66.8456290   3.9051500 139.5548060  66.4418580   3.0373760
 138.9896120  67.6203580   3.8012930 138.9406340  61.7486130   5.2334110
 139.3575130  61.5346240   4.3987570 139.6646160  62.0058920   5.8042730
 142.8868440  60.1473350   5.3250350 142.0587070  60.2166440   4.8500480
 143.4818920  60.7327660   4.8566180 139.8510450  56.9342670   6.2705220
 139.4381630  57.7596380   6.5245210 139.1186400  56.3487710   6.0781580
 132.4524940  63.4070130   3.2963100 132.1553230  62.8015600   2.6170880
 133.4024760  63.4447440   3.1852460 130.6971860  56.4945780   4.9122930
 131.2486450  56.6041120   4.1376180 131.2115370  56.8683380   5.6278160
 140.5410550  66.9802000   6.9586200 140.0641110  67.7874190   6.7658810
 139.8572340  66.3280330   7.1112410 131.5443370  63.1451820   9.9470900
 130.6471900  63.3691790  10.1944300 131.5696240  63.2686760   8.9982300
 130.3714590  60.0165140   8.5228270 130.2322360  60.8887940   8.8915670
 129.4895950  59.6737950   8.3776210 132.1694940  65.9586840  10.7313420
 132.1410370  66.3629790   9.8641850 132.0059910  65.0297200  10.5685020
 144.1209760  66.7413940  12.0277590 144.5969480  67.2196830  12.7066670
 144.7416920  66.6731430  11.3023090 126.3233240  61.7862690   4.4399180
 126.4013660  61.9211460   3.4954900 126.9374920  61.0778580   4.6327300
 143.5243010  63.9326790   9.1877600 143.6506070  63.6938670   8.2694780
 143.5664390  63.1011330   9.6599680 137.3859750  67.6354790   7.7572410
 137.9004420  67.5462800   8.5594840 136.5428830  67.9814490   8.0500320
 143.3767020  55.9859250  10.1527340 142.7611290  56.4938920   9.6242800
 143.0563440  55.0857580  10.0953280 126.3792760  62.8276860   6.9793640
 126.5423800  62.3582220   6.1613010 126.8445210  62.3200420   7.6442480
 131.1511530  51.9582620   2.0154210 130.7079680  52.7392160   1.6838730
 131.7096520  52.2812510   2.7225150 135.4381340  54.8251140   7.6189530
 134.9760710  55.0334160   8.4309470 135.0359450  54.0110490   7.3160200
 140.4385850  56.0460090   8.7486190 139.5879440  55.7465840   9.0695260
 140.2787640  56.2902100   7.8370010 137.5335560  57.5461840  10.8484980
 137.8588970  56.7125590  10.5087210 138.3215890  58.0690360  10.9963310
 133.1887430  52.5029950   3.8743810 133.4859760  53.4092780   3.7935830
 133.7372990  52.0148730   3.2603380 133.3824960  57.9801770  10.4095730
 133.2868560  57.0396500  10.2596130 134.2256940  58.2016840  10.0143800
 128.5135500  54.3915440   8.5629510 128.1198890  55.2390650   8.7702290
 127.8253900  53.7541810   8.7538150 135.0880550  54.4750410  11.6326250
 134.3978870  54.2822610  12.2672340 135.8312850  54.7585050  12.1650550
 125.8152550  52.3143900   2.5959590 125.5265600  52.8846760   3.3084570
 126.5598310  51.8348350   2.9590820 137.3643520  58.3148850   4.4680170
 136.6324640  58.8235660   4.8170270 136.9667860  57.4978830   4.1668950
 133.8020910  54.9903050   2.8732660 133.8056970  54.5493000   2.0237200
 134.6972030  55.3120380   2.9804480 129.6523290  54.8729540   1.8326870
 129.3123340  55.3504770   2.5893920 128.8900610  54.4194660   1.4727970
 137.8269430  53.7682530   3.8803110 137.8442170  54.2191180   4.7244960
 137.5785010  52.8688170   4.0936550 141.2540180  51.1814710   9.7189490
 141.5785950  50.4504370  10.2447470 141.2896690  50.8628350   8.8170480
 127.9531740  62.2028290   9.1389450 127.5686530  61.5621960   9.7372410
 128.2643930  62.9064410   9.7084180 134.1028880  59.0504830   4.6198070
 134.4699010  58.5763400   5.3659410 133.9133940  59.9246400   4.9606410
 131.8928250  58.0913470   6.9382280 131.5885320  58.9705450   7.1632640
 132.8474710  58.1513260   6.9739720 141.1798020  61.2939820   3.3275520
 141.8997140  61.7895110   2.9371630 140.9779840  60.6157710   2.6829390
 136.5616820  61.3648880   9.2144520 136.4954130  60.4444550   8.9602110
 135.9321960  61.4624320   9.9289160 127.9491980  58.9316210   8.0853640
 127.5906920  59.5970060   8.6726980 127.6546540  58.0999760   8.4566260
 131.1505100  59.3900450  10.9693190 130.8505240  59.5357630  10.0721010
 131.9216340  58.8305740  10.8766580 136.4933550  64.1869450   8.9648320
 136.5078090  63.2550410   8.7467230 135.7858650  64.2729210   9.6038090
 142.7044760  60.8276790   8.3116900 141.9792950  61.4205570   8.1146290
 143.2320220  60.8200330   7.5130270 135.9267450  65.8287020   6.0588820
 136.5709670  66.0346400   6.7362240 136.2896890  65.0675420   5.6059670
 137.1999530  63.8319370   4.7766270 137.8421760  63.1312530   4.8898440
 137.7248880  64.6117810   4.5963160 138.9737150  64.6314270   7.9802330
 139.3093390  65.2180960   8.6580250 138.0537490  64.5006980   8.2100120
 126.5240550  52.4209450   8.7625740 125.8099070  52.6206370   9.3678350
 126.9435590  51.6449020   9.1340540 126.8113140  66.4089710   9.7492270
 126.9204260  65.4684450   9.6087660 126.1593700  66.6744460   9.1006000
 134.8025730  64.6805600  11.1490390 134.4822600  63.9614840  11.6936080
 134.1284090  65.3560670  11.2226450 138.0179330  54.9131760   6.5127190
 138.3860150  54.0926970   6.8406760 137.1577530  54.9733650   6.9282840
 134.9781320  57.5671350   6.7365160 135.4766570  58.0417170   7.4017010
 135.1204270  56.6434870   6.9435190 142.1848180  53.7839310   7.5793550
 141.6821780  54.5244710   7.9187360 143.0004840  54.1723310   7.2630340
 142.4795770  66.1981340   2.7009170 142.6043190  67.0212510   3.1732980
 143.3461330  65.9872070   2.3533320 129.9513300  68.2912550   2.3726300
 130.6875780  67.7428010   2.6434870 130.3354220  69.1568560   2.2332290
 128.9571580  67.4758620  11.5611880 129.7584310  67.7970670  11.9747280
 128.4423400  67.1154200  12.2831790 137.7936210  63.5838490  11.5087290
 137.1874370  63.6070090  10.7683040 137.4890320  62.8521530  12.0454540
 139.2236580  67.3118780  10.1196700 140.1758330  67.2276800  10.0696940
 139.0764800  67.9760490  10.7930490 126.6769390  59.9632080  10.5047930
 127.1808410  59.3839360  11.0764160 125.9376810  60.2472310  11.0424300
 133.7307330  61.3703070  10.0383450 132.9653000  61.9388070   9.9538120
 133.9123290  61.0779280   9.1451680 140.8730680  63.1008400  10.5958470
 141.6140150  63.4384160  10.0925930 140.1103360  63.2700460  10.0428240
 128.7092470  58.1061670  11.3998000 128.7497810  57.8075540  12.3083230
 129.5637970  58.5069280  11.2405520 130.6498280  56.6853770   9.3672490
 130.1194740  56.1944720   8.7395830 131.3186350  57.1137970   8.8330420
 139.5476340  61.1523230   9.1313680 139.9617360  61.3068310   9.9804100
 138.6127340  61.2778450   9.2939460 140.0198510  58.4919390  11.1352830
 140.6019280  57.7371710  11.0473310 140.1960280  59.0226830  10.3584310
 131.1370580  53.6516140   9.4469780 131.0427450  53.0336890   8.7220650
 130.5567970  54.3782430   9.2199690 133.9032020  52.2089380   6.4797170
 133.4549320  52.2313640   5.6342720 133.2697220  51.8108400   7.0767470
 134.3091570  61.1043710   7.1009610 134.7279680  61.9476440   6.9285850
 133.3900200  61.2415750   6.8716390 136.6455470  58.8359890   8.4847450
 136.7651680  58.2401030   9.2242290 137.5049470  58.8729580   8.0648750
 138.9843370  59.3897080   7.0609960 138.4578590  59.9139700   6.4575100
 139.3274710  60.0224470   7.6919690 132.1598990  67.4096720   8.2167340
 131.6220080  68.1342780   7.8976040 132.4132950  66.9327060   7.4264680
 133.4124240  55.3781240   9.7423270 134.0023930  55.0697090  10.4301090
 132.5944480  54.9060990   9.8983170 138.2317670  54.9947050   9.9756290
 137.5433190  54.3328590   9.9106280 138.9523690  54.5485320  10.4204750
 135.0161200  68.6447930   8.4753990 134.9419900  69.5483070   8.7826360
 134.1140040  68.3259830   8.4476060 126.4188490  65.9722520   1.7787610
 126.7491500  65.1043580   1.5466250 126.8479490  66.1781040   2.6092570
 126.9078700  66.8393110   4.5169240 126.4709690  67.0193910   5.3493390
 127.4756380  67.5967730   4.3750960 142.5440880  66.3410110   8.8046550
 141.9442870  66.4002670   8.0610470 142.6734780  65.4015090   8.9343400
 141.2292520  63.0662090   6.9022710 140.4152360  63.4959250   7.1648500
 141.6366720  63.6780500   6.2891760 127.7779060  59.7365910   5.4161460
 128.1452100  59.6493310   6.2957480 127.2089880  58.9732460   5.3168320
 142.5782920  58.2050290   8.4291930 142.3469010  57.9763040   7.5289880
 142.8387470  59.1249840   8.3836820 127.3295060  56.6475000   9.3219880
 126.4351110  56.6141760   9.6613590 127.8692610  56.8461790  10.0871130
 141.0170990  53.4306720  11.2071630 141.8941170  53.4390120  11.5905630
 141.0291830  52.6937560  10.5963980 142.4634260  57.2836260   2.0959650
 142.9871740  56.7898910   1.4649820 143.0493680  57.4186620   2.8407220
 142.6423980  57.3676130   5.6179200 141.6926690  57.3339670   5.7324190
 142.8236990  58.2776240   5.3828970 127.8334770  50.9223330   3.6703100
 128.4810960  50.3720710   3.2298260 128.2536610  51.1766480   4.4918910
 141.7287110  51.1164690   7.0272740 142.3659330  51.7298830   7.3931930
 141.8762000  51.1525350   6.0821970 127.5866770  51.0779000   6.4128420
 127.2381590  51.5342820   7.1786600 127.2554470  50.1836130   6.4950850
 129.1931140  64.2498600  10.5781610 129.1500770  63.8791510  11.4596070
 129.3242150  65.1876170  10.7183430 132.8937170  65.8058190   6.1791330
 132.6528530  66.0732750   5.2921850 133.8339810  65.9763920   6.2342190
 135.0991590  52.2690880   9.9347840 135.0380480  52.8612710  10.6843250
 136.0391970  52.1616840   9.7898100 137.7366150  51.9260940   9.5740130
 138.3506560  52.2440230   8.9121210 138.2815710  51.4409530  10.1935990
 144.1541330  67.8252570   6.9801970 143.6599610  68.2221440   6.2629100
 143.5454620  67.2001780   7.3739250 128.2587410  50.6055200   9.6879190
 128.8070400  50.4243250   8.9245300 128.3242720  49.8149310  10.2235500
 129.0319170  67.1960850   7.6979390 128.4379490  67.0645550   8.4369430
 129.0243010  66.3598990   7.2321490 138.4774190  50.4893080   5.9009420
 137.6034030  50.8228190   5.6982350 138.3684940  50.0166260   6.7261290
 139.3846170  52.6963950   7.2851140 139.0559530  51.8815710   6.9052870
 140.3328470  52.6533760   7.1616830 141.8380780  68.4675990   4.2588710
 141.3783750  69.2191800   3.8846730 141.2093240  67.7482460   4.2003510
 128.6631400  64.5619230   6.6487430 127.9365460  63.9424520   6.5813380
 128.7240550  64.9559840   5.7785510 132.2676500  66.7764230   3.4336840
 132.7841520  66.1651590   2.9085100 132.9173880  67.2793010   3.9247850
 135.0072000  67.6672720   4.2605820 135.2949810  67.4127020   3.3838830
 135.5195220  67.1150080   4.8511390 136.2249010  51.4062920   4.8402330
 135.4420800  51.8808420   5.1199090 135.9311940  50.5017750   4.7315510
 140.7770080  52.1086020   2.8851420 141.2178170  52.0531120   2.0373020
 140.5077670  53.0244030   2.9561600 135.0744360  68.5888820  11.6274020
 136.0011670  68.3533090  11.6709980 135.0594790  69.4160820  11.1460050
 132.2607970  51.2533570  11.3915900 131.9792240  51.7567170  10.6276720
 132.6427670  50.4555320  11.0258030 138.8623430  50.6687150  11.9696370
 138.7488880  50.9881760  12.8647890 139.6793170  51.0699660  11.6733650
 141.6421920  67.8158680  11.4515060 142.4347240  67.3207910  11.2441020
 141.9355070  68.4948820  12.0590670 137.7681580  39.9136130  57.4305070
 137.6875630  38.9990740  57.1596780 137.3546000  40.4103200  56.7244780
 135.8999620  41.6915150  59.3114340 135.1241720  41.2115590  59.6012910
 136.5512550  41.0120800  59.1370500 139.9207050  46.0975340  58.0913470
 139.4588580  45.3262580  58.4200640 140.7332600  46.1241410  58.5965920
 128.3257400  36.9636850  53.9732490 127.4374100  37.3052820  53.8712370
 128.6098590  36.7637170  53.0813320 126.2890410  39.5642500  59.8572190
 126.8606520  38.7964700  59.8575830 126.2891950  39.8631260  58.9478800
 136.1470360  48.3833350  57.7117460 135.5281800  48.8390850  57.1411900
 137.0022140  48.5384810  57.3107160 135.3408610  44.3672340  59.3184500
 135.2716890  43.4262280  59.1573630 136.1028470  44.4573750  59.8907070
 136.3713780  37.1742720  59.5453430 136.7478600  36.3014600  59.4327100
 136.2733290  37.5101420  58.6543870 130.5018790  35.5468350  55.0070870
 130.6085540  36.4472080  55.3139630 129.5911150  35.4986320  54.7165520
 140.1537900  34.6693160  56.4781770 140.9747520  34.1789730  56.5207250
 140.1871980  35.2590820  57.2313610 132.3426520  38.5154720  59.3396050
 132.8504740  39.0135690  59.9801070 132.8739760  37.7389920  59.1635410
 137.0133710  43.2672590  55.1049370 136.3950980  43.7322040  54.5412090
 137.5256960  43.9600070  55.5218880 140.3899380  36.6093540  59.2509310
 139.6854950  36.8978430  59.8312420 140.7511540  37.4193650  58.8908870
 126.3816910  43.9529120  52.4789000 126.0044890  44.4416220  51.7473900
 126.6389980  44.6254400  53.1095530 143.4586300  36.0548330  59.6418520
 142.5111210  36.0887310  59.7733950 143.7836290  36.8687280  60.0267880
 133.9905840  32.3545510  57.9374510 134.2980820  31.7992400  57.2210010
 133.0606540  32.4889970  57.7547500 139.5420900  48.0712800  60.2281970
 139.5548060  47.6675090  59.3604230 138.9896120  48.8460090  60.1243400
 140.8366320  44.7929020  55.3172140 140.7262650  43.8503350  55.4421560
 140.8334570  45.1544660  56.2034900 136.3786600  40.4194340  54.6734630
 135.4515880  40.3531720  54.9023100 136.5311420  41.3574470  54.5589870
 136.3655680  36.6911340  51.6701790 135.4259350  36.8525300  51.7554250
 136.6838940  37.4097020  51.1237780 140.4083890  41.9814640  55.1769880
 139.7896310  41.6434190  54.5296180 140.3908340  41.3374400  55.8849070
 131.9843240  40.9459080  57.4554360 131.5800240  40.2336330  56.9600260
 132.0706360  40.6012320  58.3442400 132.4524940  44.6326640  59.6193570
 132.1553230  44.0272110  58.9401350 133.4024760  44.6703950  59.5082930
 138.5848590  41.2201450  52.1842630 139.0241870  40.3823880  52.0380450
 139.2977010  41.8530850  52.2706770 136.6943970  46.1597520  56.1523870
 137.1339880  46.9021850  55.7379260 136.6330860  46.4024090  57.0762830
 142.1665730  32.4744260  50.4983670 141.8538390  32.5671090  51.3982740
 142.9278200  33.0525290  50.4481100 128.6847870  39.8404060  54.9561010
 128.5645470  40.5666150  54.3442280 128.3748760  39.0706970  54.4788920
 127.5680870  44.7119390  57.1735830 127.1608950  44.8533980  56.3189430
 128.4593880  44.4279550  56.9707040 139.3614150  49.1466640  53.5086880
 139.2015290  48.8569580  54.4068710 139.1960860  48.3706770  52.9732110
 131.8402530  48.9265170  55.2858500 131.6645010  48.0100710  55.0726300
 130.9858270  49.2852460  55.5256300 139.0640280  46.6554200  52.0684880
 138.3705440  46.6531490  51.4087160 139.8063140  46.2313520  51.6379050
 138.6290210  48.2816910  56.1433370 139.0847160  47.5006290  56.4571990
 138.9682730  48.9923730  56.6874550 131.1511530  33.1839130  58.3384680
 130.7079680  33.9648670  58.0069200 131.7096520  33.5069020  59.0455620
 134.2670350  32.8049830  53.2190510 133.6424530  32.8009700  53.9443820
 134.1800470  31.9380790  52.8226480 133.1887430  33.7286460  60.1974280
 133.4859760  34.6349290  60.1166300 133.7372990  33.2405240  59.5833850
 130.9425750  38.3072700  56.0665930 130.7166670  38.0909870  56.9712550
 130.1618280  38.7401160  55.7211900 138.1723510  38.3136070  54.6656580
 137.5732400  39.0371870  54.4820200 138.7203120  38.2512850  53.8833030
 136.7788380  36.9499610  56.6959860 137.1717950  37.2671810  55.8828550
 137.1405230  36.0711490  56.8104380 125.8152550  33.5400410  58.9190060
 125.5265600  34.1103270  59.6315040 126.5598310  33.0604860  59.2821290
 126.0022780  37.4820530  50.1292780 125.9197450  38.4251290  50.2707770
 125.6505840  37.3395440  49.2505130 133.8020910  36.2159560  59.1963130
 133.8056970  35.7749510  58.3467670 134.6972030  36.5376890  59.3034950
 129.6523290  36.0986050  58.1557340 129.3123340  36.5761280  58.9124390
 128.8900610  35.6451170  57.7958440 133.8641060  37.2171640  52.1869890
 133.9853880  37.1758120  53.1355710 133.4789570  38.0795790  52.0316620
 132.8762560  39.5272780  51.5853190 132.3079460  39.0791030  50.9589100
 133.5851560  39.8865560  51.0518340 126.9669370  35.0205030  57.0722010
 126.6816290  34.6560700  57.9100630 126.9048230  34.2885490  56.4585150
 130.4210040  43.5230970  53.8579600 129.6472300  42.9828590  53.6978320
 131.1504670  43.0037580  53.5197360 141.1798020  42.5196330  59.6505990
 141.8997140  43.0151620  59.2602100 140.9779840  41.8414220  59.0059860
 136.6407960  33.9134290  53.7935380 135.8272570  33.4147460  53.7180690
 136.4469910  34.7532540  53.3771730 139.3556350  38.2853940  52.0897540
 140.2435970  38.5971170  51.9148880 139.3261440  37.4126190  51.6978120
 130.4647440  43.1911350  57.4958410 130.9826110  42.3879610  57.4415300
 130.0131460  43.1290490  58.3375240 135.3516940  44.4577630  52.7685710
 135.6932640  45.2019860  52.2729030 134.5229650  44.7708750  53.1310540
 141.6270620  39.5965780  51.5577400 141.5434340  40.0280000  50.7073840
 142.3464810  40.0564130  51.9904220 142.6557870  46.4508040  54.2859530
 142.0134030  45.7963660  54.5603250 142.2688530  46.8563130  53.5100200
 138.2344350  43.7793470  58.1331220 138.5868170  43.1821600  57.4732590
 137.3506680  43.4537700  58.3039470 134.3207630  44.5391160  55.5401630
 135.0078760  45.0860370  55.9209220 133.5340050  45.0831890  55.5751240
 126.4600030  40.1563980  51.0318710 127.3294880  40.4388780  51.3154630
 125.9690350  40.9699850  50.9167520 133.6234840  41.5437190  55.1526990
 134.0797620  42.3542440  55.3787180 133.2723050  41.2260330  55.9845480
 129.5246620  31.8874840  55.6249510 129.3961250  31.8792740  56.5734430
 128.7008640  32.2257930  55.2740520 141.0455250  45.3424500  50.8235880
 140.8192830  44.6254940  51.4160520 140.6551450  45.0936940  49.9857630
 126.8271280  49.3691360  51.5980340 127.1868920  49.9680700  50.9437610
 126.6863620  49.9151250  52.3715370 140.6271500  43.2596440  52.4850040
 140.3393200  43.7209130  53.2727920 141.4223670  42.7994210  52.7534260
 132.8439900  46.7522560  52.4154010 132.8350000  47.4852250  51.7998520
 131.9238260  46.5054140  52.5080970 128.4446540  41.9737450  53.1600770
 127.8374490  42.7136350  53.1696070 128.9195890  42.0636810  52.3338970
 141.3841360  35.0945210  53.6445220 140.7554520  35.1990880  52.9303450
 140.8893280  35.3141990  54.4339100 135.8299500  46.8150800  51.0779200
 135.9311480  46.6114790  50.1481180 134.9301240  46.5609080  51.2826980
 133.3525390  37.3731160  55.0603100 132.6441540  37.8417500  55.5016710
 133.6369870  36.7153170  55.6948290 137.3840820  34.0981820  56.4998890
 137.2608600  34.1167950  55.5508400 138.3325380  34.1460760  56.6197290
 134.4717610  49.3337120  55.7726870 134.7259110  49.2958510  54.8506240
 133.5230090  49.2070450  55.7655120 131.5560410  35.6816240  52.4353810
 132.4050940  36.1186390  52.3694000 131.1891680  35.9936500  53.2625870
 140.4770190  40.2529000  57.3485380 139.5360330  40.2679230  57.5233070
 140.7914260  39.4664960  57.7945680 130.4551830  41.9348600  50.9089340
 131.2215100  41.8229960  51.4714770 130.5326520  41.2386570  50.2566110
 129.1498590  39.3673670  51.5922230 129.2302180  38.4201180  51.7039630
 130.0418340  39.6980550  51.6982890 142.4795770  47.4237850  59.0239640
 142.6043190  48.2469020  59.4963450 143.3461330  47.2128580  58.6763790
 129.9513300  49.5169060  58.6956770 130.6875780  48.9684520  58.9665340
 130.3354220  50.3825070  58.5562760 126.8358780  45.5842630  54.5698280
 125.9098560  45.8263770  54.5603690 127.3015210  46.4116890  54.4483030
 133.0615610  48.6899370  50.5182340 133.8544220  48.9788200  50.0664130
 132.5419960  48.2591540  49.8394820 142.1145780  47.9169500  51.9419080
 141.8287290  47.5034640  51.1273260 141.9165330  48.8457210  51.8219600
 133.5793010  43.9102780  50.3824690 133.4743650  43.2955130  51.1086070
 133.4117230  43.3868670  49.5987700 136.8195740  42.9722810  50.9866680
 136.2705840  43.4192110  51.6309420 137.4415000  42.4672060  51.5104350
 132.4870860  41.9313730  52.8831980 132.9087280  41.7653600  53.7263370
 132.6121700  41.1213960  52.3887120 134.9998500  40.9551340  50.1309080
 135.5204160  40.2400360  49.7650230 135.6466900  41.5937210  50.4309590
 131.3829760  38.0046960  49.8290140 131.1818820  37.1414320  50.1903480
 131.2121810  37.9180320  48.8911740 138.8618070  32.8155190  52.3577020
 139.1420360  31.9723090  52.7136440 138.0883800  33.0478300  52.8715770
 130.1812560  35.1047580  49.8168020 130.4838460  35.1115010  48.9087170
 130.9207150  34.7545440  50.3135680 133.3997490  34.0482200  50.8024220
 133.0519490  33.3706190  50.2226670 133.6010260  33.5871710  51.6167610
 135.5646530  49.0362950  52.4210820 136.4597320  49.3747920  52.4429580
 135.5964160  48.3142360  51.7935100 129.2042690  44.4090000  50.6497820
 129.6417560  44.9519670  51.3055400 129.6890420  43.5836950  50.6594160
 126.4188490  47.1979030  58.1018080 126.7491500  46.3300090  57.8696720
 126.8479490  47.4037550  58.9323040 131.0150410  45.5288040  55.7620050
 130.7145950  45.4053010  56.6623960 130.9087900  44.6696630  55.3535780
 143.7842330  45.3084440  50.4646730 142.9535290  45.3761090  50.9353960
 143.9614160  46.1988560  50.1613590 143.2398790  42.0531920  52.9680930
 144.0017700  42.6228570  53.0740620 143.2553160  41.4859120  53.7389240
 126.7403130  40.5769850  57.1988590 126.0851970  40.3081490  56.5548290
 127.5781080  40.4674330  56.7490570 144.2458760  42.9082020  57.8122860
 144.6167590  42.1249340  57.4058830 144.8860690  43.5971120  57.6340160
 143.2917960  42.3466290  50.1253450 143.5666800  43.2545170  49.9972670
 143.1028700  42.2828820  51.0615440 139.6893570  35.3711140  51.4207080
 140.1078450  35.1842120  50.5803740 139.3829630  34.5190190  51.7310010
 143.1883300  40.2835280  55.1182880 142.8126900  39.5163210  54.6864170
 142.4586420  40.6657980  55.6057810 125.9541210  37.7868780  53.1413920
 125.0505290  38.0498980  52.9665580 126.4381830  38.0579950  52.3613880
 142.4634260  38.5092770  58.4190120 142.9871740  38.0155420  57.7880290
 143.0493680  38.6443130  59.1637690 128.4968420  36.8434320  51.0508300
 129.2060120  36.4217540  50.5655580 127.7808360  36.9109550  50.4191650
 128.1442580  32.8973650  50.0910950 128.8670710  33.4382590  50.4092170
 128.4167100  32.6237070  49.2152490 141.9534230  37.7666120  54.3582530
 142.4493350  37.5336990  55.1431410 141.7550300  36.9277960  53.9420170
 143.3821390  36.4027070  56.8920210 143.2720670  36.2483110  57.8302480
 144.1428980  35.8748010  56.6495620 144.2711660  34.2334990  50.1326350
 145.1960970  34.1016170  49.9244640 144.2487450  34.3127810  51.0862800
 144.3450150  35.0045650  52.7583060 143.5501650  34.9390770  53.2875970
 144.5493430  35.9396290  52.7468410 141.2868570  49.0437200  56.7521450
 141.8827640  48.7221770  56.0755870 141.5446720  48.5709020  57.5434720
 132.2676500  48.0020740  59.7567310 132.7841520  47.3908100  59.2315570
 132.9173880  48.5049520  60.2478320 140.7770080  33.3342530  59.2081890
 141.2178170  33.2787630  58.3603490 140.5077670  34.2500540  59.2792070
 142.6408650  32.9657770  57.2190710 142.5797050  32.0218990  57.0721730
 143.4200680  33.0737860  57.7644170 126.9461400  49.1050130  56.1814660
 126.7783440  48.4720810  56.8796550 126.0795910  49.3109530  55.8308850
 127.5689420  32.9366910  53.6846520 128.3268780  33.0495790  53.1110550
 127.1066590  33.7736110  53.6389950 134.1103230  35.0506180  56.6748830
 133.2977740  34.6763070  56.3344710 134.6144870  34.2951260  56.9770020
 138.6128210  31.7148630  57.9131900 139.2157580  32.2868840  58.3880420
 137.8721200  32.2788070  57.6905800 141.7562810  32.1170190  53.1872180
 141.9513440  33.0153640  53.4539610 140.9692680  31.8857270  53.6805130
 128.5524100  47.7983360  53.6264800 128.0271720  48.1791390  52.9226760
 128.4768680  48.4234130  54.3474510 129.9414570  33.4630960  52.2248490
 130.4707330  32.6760760  52.0956440 130.5742890  34.1422150  52.4584020
 132.1352410  33.2006100  55.2793880 131.5055150  32.4993410  55.4464010
 131.5957550  33.9610230  55.0627040 143.3089420  49.3570900  54.9478740
 143.4841610  48.6708640  54.3039660 142.6110990  49.8817950  54.5555410
 131.1517070  49.7465740  52.5014050 131.8835890  49.4625020  51.9537940
 131.4110740  49.5079020  53.3913430 130.3131860  45.8630470  52.5060380
 129.6840740  46.3315570  53.0546210 130.4279690  45.0179690  52.9406570
 137.7681580  39.9136130  38.6561580 137.6875630  38.9990740  38.3853290
 137.3546000  40.4103200  37.9501290 135.8999620  41.6915150  40.5370850
 135.1241720  41.2115590  40.8269420 136.5512550  41.0120800  40.3627010
 129.9165450  42.0034960  41.4146610 129.0850330  41.7483670  41.8143120
 130.5246430  42.0745730  42.1504530 139.9207050  46.0975340  39.3169980
 139.4588580  45.3262580  39.6457150 140.7332600  46.1241410  39.8222430
 129.8966710  46.0375050  41.6104630 130.1994750  45.1472790  41.4314850
 130.6410300  46.5945270  41.3826880 126.2890410  39.5642500  41.0828700
 126.8606520  38.7964700  41.0832340 126.2891950  39.8631260  40.1735310
 136.1470360  48.3833350  38.9373970 135.5281800  48.8390850  38.3668410
 137.0022140  48.5384810  38.5363670 135.3408610  44.3672340  40.5441010
 135.2716890  43.4262280  40.3830140 136.1028470  44.4573750  41.1163580
 127.5315280  34.9726860  42.8697630 127.3518120  34.0752610  43.1500390
 127.1295360  35.5198730  43.5444580 136.3713780  37.1742720  40.7709940
 136.7478600  36.3014600  40.6583610 136.2733290  37.5101420  39.8800380
 130.5018790  35.5468350  36.2327380 130.6085540  36.4472080  36.5396140
 129.5911150  35.4986320  35.9422030 128.1501950  37.4687360  41.4779970
 128.8312060  37.7325730  42.0967370 127.8350000  36.6288230  41.8117980
 132.3426520  38.5154720  40.5652560 132.8504740  39.0135690  41.2057580
 132.8739760  37.7389920  40.3891920 144.4437450  36.6859910  44.2681910
 143.7389620  37.0741620  43.7497020 144.7095370  37.3810200  44.8702840
 130.6262620  33.1553280  44.8315980 130.6281060  33.6725670  44.0261880
 129.7966930  32.6783460  44.8085910 131.8765470  42.7948460  43.0089480
 131.5434850  43.4217380  43.6510550 132.0532150  43.3210340  42.2291150
 140.3899380  36.6093540  40.4765820 139.6854950  36.8978430  41.0568930
 140.7511540  37.4193650  40.1165380 130.3077950  34.8663240  42.8386430
 130.6494760  35.7105290  42.5440300 129.3693760  35.0146980  42.9551770
 131.0884570  44.7629260  44.8238660 131.7058570  45.4380340  44.5423110
 130.2277690  45.1717240  44.7326160 142.0062160  46.2268670  42.7393300
 141.3225680  46.8967780  42.7309970 142.5456450  46.4249320  41.9738160
 143.4586300  36.0548330  40.8675030 142.5111210  36.0887310  40.9990460
 143.7836290  36.8687280  41.2524390 133.9905840  32.3545510  39.1631020
 134.2980820  31.7992400  38.4466520 133.0606540  32.4889970  38.9804010
 139.5420900  48.0712800  41.4538480 139.5548060  47.6675090  40.5860740
 138.9896120  48.8460090  41.3499910 140.8366320  44.7929020  36.5428650
 140.7262650  43.8503350  36.6678070 140.8334570  45.1544660  37.4291410
 138.9406340  42.9742640  42.7821090 139.3575130  42.7602750  41.9474550
 139.6646160  43.2315430  43.3529710 142.8868440  41.3729860  42.8737330
 142.0587070  41.4422950  42.3987460 143.4818920  41.9584170  42.4053160
 140.4083890  41.9814640  36.4026390 139.7896310  41.6434190  35.7552690
 140.3908340  41.3374400  37.1105580 139.8510450  38.1599180  43.8192200
 139.4381630  38.9852890  44.0732190 139.1186400  37.5744220  43.6268560
 131.9843240  40.9459080  38.6810870 131.5800240  40.2336330  38.1856770
 132.0706360  40.6012320  39.5698910 132.4524940  44.6326640  40.8450080
 132.1553230  44.0272110  40.1657860 133.4024760  44.6703950  40.7339440
 130.6971860  37.7202290  42.4609910 131.2486450  37.8297630  41.6863160
 131.2115370  38.0939890  43.1765140 140.5410550  48.2058510  44.5073180
 140.0641110  49.0130700  44.3145790 139.8572340  47.5536840  44.6599390
 131.5443370  44.3708330  47.4957880 130.6471900  44.5948300  47.7431280
 131.5696240  44.4943270  46.5469280 130.3714590  41.2421650  46.0715250
 130.2322360  42.1144450  46.4402650 129.4895950  40.8994460  45.9263190
 136.6943970  46.1597520  37.3780380 137.1339880  46.9021850  36.9635770
 136.6330860  46.4024090  38.3019340 132.1694940  47.1843350  48.2800400
 132.1410370  47.5886300  47.4128830 132.0059910  46.2553710  48.1172000
 144.1209760  47.9670450  49.5764570 144.5969480  48.4453340  50.2553650
 144.7416920  47.8987940  48.8510070 126.3233240  43.0119200  41.9886160
 126.4013660  43.1467970  41.0441880 126.9374920  42.3035090  42.1814280
 127.5680870  44.7119390  38.3992340 127.1608950  44.8533980  37.5445940
 128.4593880  44.4279550  38.1963550 143.5243010  45.1583300  46.7364580
 143.6506070  44.9195180  45.8181760 143.5664390  44.3267840  47.2086660
 137.3859750  48.8611300  45.3059390 137.9004420  48.7719310  46.1081820
 136.5428830  49.2071000  45.5987300 139.3614150  49.1466640  34.7343390
 139.2015290  48.8569580  35.6325220 139.1960860  48.3706770  34.1988620
 131.8402530  48.9265170  36.5115010 131.6645010  48.0100710  36.2982810
 130.9858270  49.2852460  36.7512810 138.6290210  48.2816910  37.3689880
 139.0847160  47.5006290  37.6828500 138.9682730  48.9923730  37.9131060
 143.3767020  37.2115760  47.7014320 142.7611290  37.7195430  47.1729780
 143.0563440  36.3114090  47.6440260 126.3792760  44.0533370  44.5280620
 126.5423800  43.5838730  43.7099990 126.8445210  43.5456930  45.1929460
 131.1511530  33.1839130  39.5641190 130.7079680  33.9648670  39.2325710
 131.7096520  33.5069020  40.2712130 135.4381340  36.0507650  45.1676510
 134.9760710  36.2590670  45.9796450 135.0359450  35.2367000  44.8647180
 140.4385850  37.2716600  46.2973170 139.5879440  36.9722350  46.6182240
 140.2787640  37.5158610  45.3856990 137.5335560  38.7718350  48.3971960
 137.8588970  37.9382100  48.0574190 138.3215890  39.2946870  48.5450290
 134.2670350  32.8049830  34.4447020 133.6424530  32.8009700  35.1700330
 134.1800470  31.9380790  34.0482990 133.1887430  33.7286460  41.4230790
 133.4859760  34.6349290  41.3422810 133.7372990  33.2405240  40.8090360
 130.9425750  38.3072700  37.2922440 130.7166670  38.0909870  38.1969060
 130.1618280  38.7401160  36.9468410 133.3824960  39.2058280  47.9582710
 133.2868560  38.2653010  47.8083110 134.2256940  39.4273350  47.5630780
 136.7788380  36.9499610  37.9216370 137.1717950  37.2671810  37.1085060
 137.1405230  36.0711490  38.0360890 128.5135500  35.6171950  46.1116490
 128.1198890  36.4647160  46.3189270 127.8253900  34.9798320  46.3025130
 135.0880550  35.7006920  49.1813230 134.3978870  35.5079120  49.8159320
 135.8312850  35.9841560  49.7137530 125.8152550  33.5400410  40.1446570
 125.5265600  34.1103270  40.8571550 126.5598310  33.0604860  40.5077800
 137.3643520  39.5405360  42.0167150 136.6324640  40.0492170  42.3657250
 136.9667860  38.7235340  41.7155930 133.8020910  36.2159560  40.4219640
 133.8056970  35.7749510  39.5724180 134.6972030  36.5376890  40.5291460
 129.6523290  36.0986050  39.3813850 129.3123340  36.5761280  40.1380900
 128.8900610  35.6451170  39.0214950 137.8269430  34.9939040  41.4290090
 137.8442170  35.4447690  42.2731940 137.5785010  34.0944680  41.6423530
 141.2540180  32.4071220  47.2676470 141.5785950  31.6760880  47.7934450
 141.2896690  32.0884860  46.3657460 127.9531740  43.4284800  46.6876430
 127.5686530  42.7878470  47.2859390 128.2643930  44.1320920  47.2571160
 134.1028880  40.2761340  42.1685050 134.4699010  39.8019910  42.9146390
 133.9133940  41.1502910  42.5093390 126.9669370  35.0205030  38.2978520
 126.6816290  34.6560700  39.1357140 126.9048230  34.2885490  37.6841660
 131.8928250  39.3169980  44.4869260 131.5885320  40.1961960  44.7119620
 132.8474710  39.3769770  44.5226700 130.4210040  43.5230970  35.0836110
 129.6472300  42.9828590  34.9234830 131.1504670  43.0037580  34.7453870
 141.1798020  42.5196330  40.8762500 141.8997140  43.0151620  40.4858610
 140.9779840  41.8414220  40.2316370 136.5616820  42.5905390  46.7631500
 136.4954130  41.6701060  46.5089090 135.9321960  42.6880830  47.4776140
 130.4647440  43.1911350  38.7214920 130.9826110  42.3879610  38.6671810
 130.0131460  43.1290490  39.5631750 127.9491980  40.1572720  45.6340620
 127.5906920  40.8226570  46.2213960 127.6546540  39.3256270  46.0053240
 131.1505100  40.6156960  48.5180170 130.8505240  40.7614140  47.6207990
 131.9216340  40.0562250  48.4253560 136.4933550  45.4125960  46.5135300
 136.5078090  44.4806920  46.2954210 135.7858650  45.4985720  47.1525070
 142.7044760  42.0533300  45.8603880 141.9792950  42.6462080  45.6633270
 143.2320220  42.0456840  45.0617250 142.6557870  46.4508040  35.5116040
 142.0134030  45.7963660  35.7859760 142.2688530  46.8563130  34.7356710
 138.2344350  43.7793470  39.3587730 138.5868170  43.1821600  38.6989100
 137.3506680  43.4537700  39.5295980 134.3207630  44.5391160  36.7658140
 135.0078760  45.0860370  37.1465730 133.5340050  45.0831890  36.8007750
 133.6234840  41.5437190  36.3783500 134.0797620  42.3542440  36.6043690
 133.2723050  41.2260330  37.2101990 135.9267450  47.0543530  43.6075800
 136.5709670  47.2602910  44.2849220 136.2896890  46.2931930  43.1546650
 129.5246620  31.8874840  36.8506020 129.3961250  31.8792740  37.7990940
 128.7008640  32.2257930  36.4997030 137.1999530  45.0575880  42.3253250
 137.8421760  44.3569040  42.4385420 137.7248880  45.8374320  42.1450140
 138.9737150  45.8570780  45.5289310 139.3093390  46.4437470  46.2067230
 138.0537490  45.7263490  45.7587100 126.5240550  33.6465960  46.3112720
 125.8099070  33.8462880  46.9165330 126.9435590  32.8705530  46.6827520
 126.8113140  47.6346220  47.2979250 126.9204260  46.6940960  47.1574640
 126.1593700  47.9000970  46.6492980 134.8025730  45.9062110  48.6977370
 134.4822600  45.1871350  49.2423060 134.1284090  46.5817180  48.7713430
 132.8439900  46.7522560  33.6410520 132.8350000  47.4852250  33.0255030
 131.9238260  46.5054140  33.7337480 138.0179330  36.1388270  44.0614170
 138.3860150  35.3183480  44.3893740 137.1577530  36.1990160  44.4769820
 133.3525390  37.3731160  36.2859610 132.6441540  37.8417500  36.7273220
 133.6369870  36.7153170  36.9204800 134.9781320  38.7927860  44.2852140
 135.4766570  39.2673680  44.9503990 135.1204270  37.8691380  44.4922170
 137.3840820  34.0981820  37.7255400 137.2608600  34.1167950  36.7764910
 138.3325380  34.1460760  37.8453800 134.4717610  49.3337120  36.9983380
 134.7259110  49.2958510  36.0762750 133.5230090  49.2070450  36.9911630
 142.1848180  35.0095820  45.1280530 141.6821780  35.7501220  45.4674340
 143.0004840  35.3979820  44.8117320 140.4770190  40.2529000  38.5741890
 139.5360330  40.2679230  38.7489580 140.7914260  39.4664960  39.0202190
 142.4795770  47.4237850  40.2496150 142.6043190  48.2469020  40.7219960
 143.3461330  47.2128580  39.9020300 129.9513300  49.5169060  39.9213280
 130.6875780  48.9684520  40.1921850 130.3354220  50.3825070  39.7819270
 128.9571580  48.7015130  49.1098860 129.7584310  49.0227180  49.5234260
 128.4423400  48.3410710  49.8318770 133.0615610  48.6899370  31.7438850
 133.8544220  48.9788200  31.2920640 132.5419960  48.2591540  31.0651330
 137.7936210  44.8095000  49.0574270 137.1874370  44.8326600  48.3170020
 137.4890320  44.0778040  49.5941520 139.2236580  48.5375290  47.6683680
 140.1758330  48.4533310  47.6183920 139.0764800  49.2017000  48.3417470
 142.1145780  47.9169500  33.1675590 141.8287290  47.5034640  32.3529770
 141.9165330  48.8457210  33.0476110 126.6769390  41.1888590  48.0534910
 127.1808410  40.6095870  48.6251140 125.9376810  41.4728820  48.5911280
 133.7307330  42.5959580  47.5870430 132.9653000  43.1644580  47.5025100
 133.9123290  42.3035790  46.6938660 140.8730680  44.3264910  48.1445450
 141.6140150  44.6640670  47.6412910 140.1103360  44.4956970  47.5915220
 128.7092470  39.3318180  48.9484980 128.7497810  39.0332050  49.8570210
 129.5637970  39.7325790  48.7892500 130.6498280  37.9110280  46.9159470
 130.1194740  37.4201230  46.2882810 131.3186350  38.3394480  46.3817400
 139.5476340  42.3779740  46.6800660 139.9617360  42.5324820  47.5291080
 138.6127340  42.5034960  46.8426440 140.0198510  39.7175900  48.6839810
 140.6019280  38.9628220  48.5960290 140.1960280  40.2483340  47.9071290
 131.1370580  34.8772650  46.9956760 131.0427450  34.2593400  46.2707630
 130.5567970  35.6038940  46.7686670 133.9032020  33.4345890  44.0284150
 133.4549320  33.4570150  43.1829700 133.2697220  33.0364910  44.6254450
 134.3091570  42.3300220  44.6496590 134.7279680  43.1732950  44.4772830
 133.3900200  42.4672260  44.4203370 136.6455470  40.0616400  46.0334430
 136.7651680  39.4657540  46.7729270 137.5049470  40.0986090  45.6135730
 138.9843370  40.6153590  44.6096940 138.4578590  41.1396210  44.0062080
 139.3274710  41.2480980  45.2406670 132.1598990  48.6353230  45.7654320
 131.6220080  49.3599290  45.4463020 132.4132950  48.1583570  44.9751660
 133.4124240  36.6037750  47.2910250 134.0023930  36.2953600  47.9788070
 132.5944480  36.1317500  47.4470150 138.2317670  36.2203560  47.5243270
 137.5433190  35.5585100  47.4593260 138.9523690  35.7741830  47.9691730
 135.0161200  49.8704440  46.0240970 134.9419900  50.7739580  46.3313340
 134.1140040  49.5516340  45.9963040 135.5646530  49.0362950  33.6467330
 136.4597320  49.3747920  33.6686090 135.5964160  48.3142360  33.0191610
 126.4188490  47.1979030  39.3274590 126.7491500  46.3300090  39.0953230
 126.8479490  47.4037550  40.1579550 131.0150410  45.5288040  36.9876560
 130.7145950  45.4053010  37.8880470 130.9087900  44.6696630  36.5792290
 126.9078700  48.0649620  42.0656220 126.4709690  48.2450420  42.8980370
 127.4756380  48.8224240  41.9237940 142.5440880  47.5666620  46.3533530
 141.9442870  47.6259180  45.6097450 142.6734780  46.6271600  46.4830380
 143.7842330  45.3084440  31.6903240 142.9535290  45.3761090  32.1610470
 143.9614160  46.1988560  31.3870100 143.2398790  42.0531920  34.1937440
 144.0017700  42.6228570  34.2997130 143.2553160  41.4859120  34.9645750
 144.2458760  42.9082020  39.0379370 144.6167590  42.1249340  38.6315340
 144.8860690  43.5971120  38.8596670 141.2292520  44.2918600  44.4509690
 140.4152360  44.7215760  44.7135480 141.6366720  44.9037010  43.8378740
 143.2917960  42.3466290  31.3509960 143.5666800  43.2545170  31.2229180
 143.1028700  42.2828820  32.2871950 127.7779060  40.9622420  42.9648440
 128.1452100  40.8749820  43.8444460 127.2089880  40.1988970  42.8655300
 142.5782920  39.4306800  45.9778910 142.3469010  39.2019550  45.0776860
 142.8387470  40.3506350  45.9323800 127.3295060  37.8731510  46.8706860
 126.4351110  37.8398270  47.2100570 127.8692610  38.0718300  47.6358110
 141.0170990  34.6563230  48.7558610 141.8941170  34.6646630  49.1392610
 141.0291830  33.9194070  48.1450960 142.4634260  38.5092770  39.6446630
 142.9871740  38.0155420  39.0136800 143.0493680  38.6443130  40.3894200
 142.6423980  38.5932640  43.1666180 141.6926690  38.5596180  43.2811170
 142.8236990  39.5032750  42.9315950 127.8334770  32.1479840  41.2190080
 128.4810960  31.5977220  40.7785240 128.2536610  32.4022990  42.0405890
 143.3821390  36.4027070  38.1176720 143.2720670  36.2483110  39.0558990
 144.1428980  35.8748010  37.8752130 141.7287110  32.3421200  44.5759720
 142.3659330  32.9555340  44.9418910 141.8762000  32.3781860  43.6308950
 141.2868570  49.0437200  37.9777960 141.8827640  48.7221770  37.3012380
 141.5446720  48.5709020  38.7691230 127.5866770  32.3035510  43.9615400
 127.2381590  32.7599330  44.7273580 127.2554470  31.4092640  44.0437830
 129.1931140  45.4755110  48.1268590 129.1500770  45.1048020  49.0083050
 129.3242150  46.4132680  48.2670410 132.8937170  47.0314700  43.7278310
 132.6528530  47.2989260  42.8408830 133.8339810  47.2020430  43.7829170
 135.0991590  33.4947390  47.4834820 135.0380480  34.0869220  48.2330230
 136.0391970  33.3873350  47.3385080 137.7366150  33.1517450  47.1227110
 138.3506560  33.4696740  46.4608190 138.2815710  32.6666040  47.7422970
 144.1541330  49.0509080  44.5288950 143.6599610  49.4477950  43.8116080
 143.5454620  48.4258290  44.9226230 128.2587410  31.8311710  47.2366170
 128.8070400  31.6499760  46.4732280 128.3242720  31.0405820  47.7722480
 129.0319170  48.4217360  45.2466370 128.4379490  48.2902060  45.9856410
 129.0243010  47.5855500  44.7808470 138.4774190  31.7149590  43.4496400
 137.6034030  32.0484700  43.2469330 138.3684940  31.2422770  44.2748270
 139.3846170  33.9220460  44.8338120 139.0559530  33.1072220  44.4539850
 140.3328470  33.8790270  44.7103810 141.8380780  49.6932500  41.8075690
 141.3783750  50.4448310  41.4333710 141.2093240  48.9738970  41.7490490
 128.6631400  45.7875740  44.1974410 127.9365460  45.1681030  44.1300360
 128.7240550  46.1816350  43.3272490 132.2676500  48.0020740  40.9823820
 132.7841520  47.3908100  40.4572080 132.9173880  48.5049520  41.4734830
 135.0072000  48.8929230  41.8092800 135.2949810  48.6383530  40.9325810
 135.5195220  48.3406590  42.3998370 136.2249010  32.6319430  42.3889310
 135.4420800  33.1064930  42.6686070 135.9311940  31.7274260  42.2802490
 140.7770080  33.3342530  40.4338400 141.2178170  33.2787630  39.5860000
 140.5077670  34.2500540  40.5048580 142.6408650  32.9657770  38.4447220
 142.5797050  32.0218990  38.2978240 143.4200680  33.0737860  38.9900680
 126.9461400  49.1050130  37.4071170 126.7783440  48.4720810  38.1053060
 126.0795910  49.3109530  37.0565360 134.1103230  35.0506180  37.9005340
 133.2977740  34.6763070  37.5601220 134.6144870  34.2951260  38.2026530
 138.6128210  31.7148630  39.1388410 139.2157580  32.2868840  39.6136930
 137.8721200  32.2788070  38.9162310 128.5524100  47.7983360  34.8521310
 128.0271720  48.1791390  34.1483270 128.4768680  48.4234130  35.5731020
 132.1352410  33.2006100  36.5050390 131.5055150  32.4993410  36.6720520
 131.5957550  33.9610230  36.2883550 135.0744360  49.8145330  49.1761000
 136.0011670  49.5789600  49.2196960 135.0594790  50.6417330  48.6947030
 143.3089420  49.3570900  36.1735250 143.4841610  48.6708640  35.5296170
 142.6110990  49.8817950  35.7811920 132.2607970  32.4790080  48.9402880
 131.9792240  32.9823680  48.1763700 132.6427670  31.6811830  48.5745010
 131.1517070  49.7465740  33.7270560 131.8835890  49.4625020  33.1794450
 131.4110740  49.5079020  34.6169940 138.8623430  31.8943660  49.5183350
 138.7488880  32.2138270  50.4134870 139.6793170  32.2956170  49.2220630
 141.6421920  49.0415190  49.0002040 142.4347240  48.5464420  48.7928000
 141.9355070  49.7205330  49.6077650 135.8999620  41.6915150  21.7627360
 135.1241720  41.2115590  22.0525930 136.5512550  41.0120800  21.5883520
 128.1501950  37.4687360  22.7036480 128.8312060  37.7325730  23.3223880
 127.8350000  36.6288230  23.0374490 132.3426520  38.5154720  21.7909070
 132.8504740  39.0135690  22.4314090 132.8739760  37.7389920  21.6148430
 144.4437450  36.6859910  25.4938420 143.7389620  37.0741620  24.9753530
 144.7095370  37.3810200  26.0959350 139.5420900  48.0712800  22.6794990
 139.5548060  47.6675090  21.8117250 138.9896120  48.8460090  22.5756420
 138.9406340  42.9742640  24.0077600 139.3575130  42.7602750  23.1731060
 139.6646160  43.2315430  24.5786220 139.8510450  38.1599180  25.0448710
 139.4381630  38.9852890  25.2988700 139.1186400  37.5744220  24.8525070
 130.6971860  37.7202290  23.6866420 131.2486450  37.8297630  22.9119670
 131.2115370  38.0939890  24.4021650 142.1665730  32.4744260  12.9496690
 141.8538390  32.5671090  13.8495760 142.9278200  33.0525290  12.8994120
 144.1209760  47.9670450  30.8021080 144.5969480  48.4453340  31.4810160
 144.7416920  47.8987940  30.0766580 139.3614150  49.1466640  15.9599900
 139.2015290  48.8569580  16.8581730 139.1960860  48.3706770  15.4245130
 139.0640280  46.6554200  14.5197900 138.3705440  46.6531490  13.8600180
 139.8063140  46.2313520  14.0892070 138.6290210  48.2816910  18.5946390
 139.0847160  47.5006290  18.9085010 138.9682730  48.9923730  19.1387570
 143.3767020  37.2115760  28.9270830 142.7611290  37.7195430  28.3986290
 143.0563440  36.3114090  28.8696770 125.8152550  33.5400410  21.3703080
 125.5265600  34.1103270  22.0828060 126.5598310  33.0604860  21.7334310
 126.0022780  37.4820530  12.5805800 125.9197450  38.4251290  12.7220790
 125.6505840  37.3395440  11.7018150 137.3643520  39.5405360  23.2423660
 136.6324640  40.0492170  23.5913760 136.9667860  38.7235340  22.9412440
 134.1028880  40.2761340  23.3941560 134.4699010  39.8019910  24.1402900
 133.9133940  41.1502910  23.7349900 135.3516940  44.4577630  15.2198730
 135.6932640  45.2019860  14.7242050 134.5229650  44.7708750  15.5823560
 141.0455250  45.3424500  13.2748900 140.8192830  44.6254940  13.8673540
 140.6551450  45.0936940  12.4370650 126.8271280  49.3691360  14.0493360
 127.1868920  49.9680700  13.3950630 126.6863620  49.9151250  14.8228390
 135.8299500  46.8150800  13.5292220 135.9311480  46.6114790  12.5994200
 134.9301240  46.5609080  13.7340000 134.4717610  49.3337120  18.2239890
 134.7259110  49.2958510  17.3019260 133.5230090  49.2070450  18.2168140
 130.4551830  41.9348600  13.3602360 131.2215100  41.8229960  13.9227790
 130.5326520  41.2386570  12.7079130 128.9571580  48.7015130  30.3355370
 129.7584310  49.0227180  30.7490770 128.4423400  48.3410710  31.0575280
 133.0615610  48.6899370  12.9695360 133.8544220  48.9788200  12.5177150
 132.5419960  48.2591540  12.2907840 142.1145780  47.9169500  14.3932100
 141.8287290  47.5034640  13.5786280 141.9165330  48.8457210  14.2732620
 133.5793010  43.9102780  12.8337710 133.4743650  43.2955130  13.5599090
 133.4117230  43.3868670  12.0500720 136.8195740  42.9722810  13.4379700
 136.2705840  43.4192110  14.0822440 137.4415000  42.4672060  13.9617370
 138.9843370  40.6153590  25.8353450 138.4578590  41.1396210  25.2318590
 139.3274710  41.2480980  26.4663180 131.3829760  38.0046960  12.2803160
 131.1818820  37.1414320  12.6416500 131.2121810  37.9180320  11.3424760
 130.1812560  35.1047580  12.2681040 130.4838460  35.1115010  11.3600190
 130.9207150  34.7545440  12.7648700 135.5646530  49.0362950  14.8723840
 136.4597320  49.3747920  14.8942600 135.5964160  48.3142360  14.2448120
 129.2042690  44.4090000  13.1010840 129.6417560  44.9519670  13.7568420
 129.6890420  43.5836950  13.1107180 142.5440880  47.5666620  27.5790040
 141.9442870  47.6259180  26.8353960 142.6734780  46.6271600  27.7086890
 143.7842330  45.3084440  12.9159750 142.9535290  45.3761090  13.3866980
 143.9614160  46.1988560  12.6126610 143.2917960  42.3466290  12.5766470
 143.5666800  43.2545170  12.4485690 143.1028700  42.2828820  13.5128460
 142.5782920  39.4306800  27.2035420 142.3469010  39.2019550  26.3033370
 142.8387470  40.3506350  27.1580310 142.6423980  38.5932640  24.3922690
 141.6926690  38.5596180  24.5067680 142.8236990  39.5032750  24.1572460
 128.4968420  36.8434320  13.5021320 129.2060120  36.4217540  13.0168600
 127.7808360  36.9109550  12.8704670 128.1442580  32.8973650  12.5423970
 128.8670710  33.4382590  12.8605190 128.4167100  32.6237070  11.6665510
 144.2711660  34.2334990  12.5839370 145.1960970  34.1016170  12.3757660
 144.2487450  34.3127810  13.5375820 141.2868570  49.0437200  19.2034470
 141.8827640  48.7221770  18.5268890 141.5446720  48.5709020  19.9947740
 144.1541330  49.0509080  25.7545460 143.6599610  49.4477950  25.0372590
 143.5454620  48.4258290  26.1482740 141.8380780  49.6932500  23.0332200
 141.3783750  50.4448310  22.6590220 141.2093240  48.9738970  22.9747000
 127.5689420  32.9366910  16.1359540 128.3268780  33.0495790  15.5623570
 127.1066590  33.7736110  16.0902970 143.3089420  49.3570900  17.3991760
 143.4841610  48.6708640  16.7552680 142.6110990  49.8817950  17.0068430
 131.1517070  49.7465740  14.9527070 131.8835890  49.4625020  14.4050960
 131.4110740  49.5079020  15.8426450 141.6421920  49.0415190  30.2258550
 142.4347240  48.5464420  30.0184510 141.9355070  49.7205330  30.8334160
 135.8999620  41.6915150   2.9883870 135.1241720  41.2115590   3.2782440
 136.5512550  41.0120800   2.8140030 129.9165450  42.0034960   3.8659630
 129.0850330  41.7483670   4.2656140 130.5246430  42.0745730   4.6017550
 139.9207050  46.0975340   1.7683000 139.4588580  45.3262580   2.0970170
 140.7332600  46.1241410   2.2735450 129.8966710  46.0375050   4.0617650
 130.1994750  45.1472790   3.8827870 130.6410300  46.5945270   3.8339900
 126.2890410  39.5642500   3.5341720 126.8606520  38.7964700   3.5345360
 126.2891950  39.8631260   2.6248330 135.3408610  44.3672340   2.9954030
 135.2716890  43.4262280   2.8343160 136.1028470  44.4573750   3.5676600
 127.5315280  34.9726860   5.3210650 127.3518120  34.0752610   5.6013410
 127.1295360  35.5198730   5.9957600 136.3713780  37.1742720   3.2222960
 136.7478600  36.3014600   3.1096630 136.2733290  37.5101420   2.3313400
 128.1501950  37.4687360   3.9292990 128.8312060  37.7325730   4.5480390
 127.8350000  36.6288230   4.2631000 132.3426520  38.5154720   3.0165580
 132.8504740  39.0135690   3.6570600 132.8739760  37.7389920   2.8404940
 144.4437450  36.6859910   6.7194930 143.7389620  37.0741620   6.2010040
 144.7095370  37.3810200   7.3215860 130.6262620  33.1553280   7.2829000
 130.6281060  33.6725670   6.4774900 129.7966930  32.6783460   7.2598930
 131.8765470  42.7948460   5.4602500 131.5434850  43.4217380   6.1023570
 132.0532150  43.3210340   4.6804170 140.3899380  36.6093540   2.9278840
 139.6854950  36.8978430   3.5081950 140.7511540  37.4193650   2.5678400
 130.3077950  34.8663240   5.2899450 130.6494760  35.7105290   4.9953320
 129.3693760  35.0146980   5.4064790 131.0884570  44.7629260   7.2751680
 131.7058570  45.4380340   6.9936130 130.2277690  45.1717240   7.1839180
 142.0062160  46.2268670   5.1906320 141.3225680  46.8967780   5.1822990
 142.5456450  46.4249320   4.4251180 143.4586300  36.0548330   3.3188050
 142.5111210  36.0887310   3.4503480 143.7836290  36.8687280   3.7037410
 139.5420900  48.0712800   3.9051500 139.5548060  47.6675090   3.0373760
 138.9896120  48.8460090   3.8012930 138.9406340  42.9742640   5.2334110
 139.3575130  42.7602750   4.3987570 139.6646160  43.2315430   5.8042730
 142.8868440  41.3729860   5.3250350 142.0587070  41.4422950   4.8500480
 143.4818920  41.9584170   4.8566180 139.8510450  38.1599180   6.2705220
 139.4381630  38.9852890   6.5245210 139.1186400  37.5744220   6.0781580
 132.4524940  44.6326640   3.2963100 132.1553230  44.0272110   2.6170880
 133.4024760  44.6703950   3.1852460 130.6971860  37.7202290   4.9122930
 131.2486450  37.8297630   4.1376180 131.2115370  38.0939890   5.6278160
 140.5410550  48.2058510   6.9586200 140.0641110  49.0130700   6.7658810
 139.8572340  47.5536840   7.1112410 131.5443370  44.3708330   9.9470900
 130.6471900  44.5948300  10.1944300 131.5696240  44.4943270   8.9982300
 130.3714590  41.2421650   8.5228270 130.2322360  42.1144450   8.8915670
 129.4895950  40.8994460   8.3776210 132.1694940  47.1843350  10.7313420
 132.1410370  47.5886300   9.8641850 132.0059910  46.2553710  10.5685020
 144.1209760  47.9670450  12.0277590 144.5969480  48.4453340  12.7066670
 144.7416920  47.8987940  11.3023090 126.3233240  43.0119200   4.4399180
 126.4013660  43.1467970   3.4954900 126.9374920  42.3035090   4.6327300
 143.5243010  45.1583300   9.1877600 143.6506070  44.9195180   8.2694780
 143.5664390  44.3267840   9.6599680 137.3859750  48.8611300   7.7572410
 137.9004420  48.7719310   8.5594840 136.5428830  49.2071000   8.0500320
 143.3767020  37.2115760  10.1527340 142.7611290  37.7195430   9.6242800
 143.0563440  36.3114090  10.0953280 126.3792760  44.0533370   6.9793640
 126.5423800  43.5838730   6.1613010 126.8445210  43.5456930   7.6442480
 131.1511530  33.1839130   2.0154210 130.7079680  33.9648670   1.6838730
 131.7096520  33.5069020   2.7225150 135.4381340  36.0507650   7.6189530
 134.9760710  36.2590670   8.4309470 135.0359450  35.2367000   7.3160200
 140.4385850  37.2716600   8.7486190 139.5879440  36.9722350   9.0695260
 140.2787640  37.5158610   7.8370010 137.5335560  38.7718350  10.8484980
 137.8588970  37.9382100  10.5087210 138.3215890  39.2946870  10.9963310
 133.1887430  33.7286460   3.8743810 133.4859760  34.6349290   3.7935830
 133.7372990  33.2405240   3.2603380 128.5135500  35.6171950   8.5629510
 128.1198890  36.4647160   8.7702290 127.8253900  34.9798320   8.7538150
 125.8152550  33.5400410   2.5959590 125.5265600  34.1103270   3.3084570
 126.5598310  33.0604860   2.9590820 137.3643520  39.5405360   4.4680170
 136.6324640  40.0492170   4.8170270 136.9667860  38.7235340   4.1668950
 133.8020910  36.2159560   2.8732660 133.8056970  35.7749510   2.0237200
 134.6972030  36.5376890   2.9804480 129.6523290  36.0986050   1.8326870
 129.3123340  36.5761280   2.5893920 128.8900610  35.6451170   1.4727970
 137.8269430  34.9939040   3.8803110 137.8442170  35.4447690   4.7244960
 137.5785010  34.0944680   4.0936550 141.2540180  32.4071220   9.7189490
 141.5785950  31.6760880  10.2447470 141.2896690  32.0884860   8.8170480
 127.9531740  43.4284800   9.1389450 127.5686530  42.7878470   9.7372410
 128.2643930  44.1320920   9.7084180 134.1028880  40.2761340   4.6198070
 134.4699010  39.8019910   5.3659410 133.9133940  41.1502910   4.9606410
 131.8928250  39.3169980   6.9382280 131.5885320  40.1961960   7.1632640
 132.8474710  39.3769770   6.9739720 141.1798020  42.5196330   3.3275520
 141.8997140  43.0151620   2.9371630 140.9779840  41.8414220   2.6829390
 136.5616820  42.5905390   9.2144520 136.4954130  41.6701060   8.9602110
 135.9321960  42.6880830   9.9289160 127.9491980  40.1572720   8.0853640
 127.5906920  40.8226570   8.6726980 127.6546540  39.3256270   8.4566260
 131.1505100  40.6156960  10.9693190 130.8505240  40.7614140  10.0721010
 131.9216340  40.0562250  10.8766580 136.4933550  45.4125960   8.9648320
 136.5078090  44.4806920   8.7467230 135.7858650  45.4985720   9.6038090
 142.7044760  42.0533300   8.3116900 141.9792950  42.6462080   8.1146290
 143.2320220  42.0456840   7.5130270 135.9267450  47.0543530   6.0588820
 136.5709670  47.2602910   6.7362240 136.2896890  46.2931930   5.6059670
 137.1999530  45.0575880   4.7766270 137.8421760  44.3569040   4.8898440
 137.7248880  45.8374320   4.5963160 138.9737150  45.8570780   7.9802330
 139.3093390  46.4437470   8.6580250 138.0537490  45.7263490   8.2100120
 126.5240550  33.6465960   8.7625740 125.8099070  33.8462880   9.3678350
 126.9435590  32.8705530   9.1340540 126.8113140  47.6346220   9.7492270
 126.9204260  46.6940960   9.6087660 126.1593700  47.9000970   9.1006000
 134.8025730  45.9062110  11.1490390 134.4822600  45.1871350  11.6936080
 134.1284090  46.5817180  11.2226450 138.0179330  36.1388270   6.5127190
 138.3860150  35.3183480   6.8406760 137.1577530  36.1990160   6.9282840
 134.9781320  38.7927860   6.7365160 135.4766570  39.2673680   7.4017010
 135.1204270  37.8691380   6.9435190 142.1848180  35.0095820   7.5793550
 141.6821780  35.7501220   7.9187360 143.0004840  35.3979820   7.2630340
 142.4795770  47.4237850   2.7009170 142.6043190  48.2469020   3.1732980
 143.3461330  47.2128580   2.3533320 129.9513300  49.5169060   2.3726300
 130.6875780  48.9684520   2.6434870 130.3354220  50.3825070   2.2332290
 128.9571580  48.7015130  11.5611880 129.7584310  49.0227180  11.9747280
 128.4423400  48.3410710  12.2831790 137.7936210  44.8095000  11.5087290
 137.1874370  44.8326600  10.7683040 137.4890320  44.0778040  12.0454540
 139.2236580  48.5375290  10.1196700 140.1758330  48.4533310  10.0696940
 139.0764800  49.2017000  10.7930490 126.6769390  41.1888590  10.5047930
 127.1808410  40.6095870  11.0764160 125.9376810  41.4728820  11.0424300
 133.7307330  42.5959580  10.0383450 132.9653000  43.1644580   9.9538120
 133.9123290  42.3035790   9.1451680 140.8730680  44.3264910  10.5958470
 141.6140150  44.6640670  10.0925930 140.1103360  44.4956970  10.0428240
 128.7092470  39.3318180  11.3998000 128.7497810  39.0332050  12.3083230
 129.5637970  39.7325790  11.2405520 130.6498280  37.9110280   9.3672490
 130.1194740  37.4201230   8.7395830 131.3186350  38.3394480   8.8330420
 139.5476340  42.3779740   9.1313680 139.9617360  42.5324820   9.9804100
 138.6127340  42.5034960   9.2939460 131.1370580  34.8772650   9.4469780
 131.0427450  34.2593400   8.7220650 130.5567970  35.6038940   9.2199690
 133.9032020  33.4345890   6.4797170 133.4549320  33.4570150   5.6342720
 133.2697220  33.0364910   7.0767470 134.3091570  42.3300220   7.1009610
 134.7279680  43.1732950   6.9285850 133.3900200  42.4672260   6.8716390
 136.6455470  40.0616400   8.4847450 136.7651680  39.4657540   9.2242290
 137.5049470  40.0986090   8.0648750 138.9843370  40.6153590   7.0609960
 138.4578590  41.1396210   6.4575100 139.3274710  41.2480980   7.6919690
 132.1598990  48.6353230   8.2167340 131.6220080  49.3599290   7.8976040
 132.4132950  48.1583570   7.4264680 133.4124240  36.6037750   9.7423270
 134.0023930  36.2953600  10.4301090 132.5944480  36.1317500   9.8983170
 138.2317670  36.2203560   9.9756290 137.5433190  35.5585100   9.9106280
 138.9523690  35.7741830  10.4204750 135.0161200  49.8704440   8.4753990
 134.9419900  50.7739580   8.7826360 134.1140040  49.5516340   8.4476060
 126.4188490  47.1979030   1.7787610 126.7491500  46.3300090   1.5466250
 126.8479490  47.4037550   2.6092570 126.9078700  48.0649620   4.5169240
 126.4709690  48.2450420   5.3493390 127.4756380  48.8224240   4.3750960
 142.5440880  47.5666620   8.8046550 141.9442870  47.6259180   8.0610470
 142.6734780  46.6271600   8.9343400 141.2292520  44.2918600   6.9022710
 140.4152360  44.7215760   7.1648500 141.6366720  44.9037010   6.2891760
 127.7779060  40.9622420   5.4161460 128.1452100  40.8749820   6.2957480
 127.2089880  40.1988970   5.3168320 142.5782920  39.4306800   8.4291930
 142.3469010  39.2019550   7.5289880 142.8387470  40.3506350   8.3836820
 127.3295060  37.8731510   9.3219880 126.4351110  37.8398270   9.6613590
 127.8692610  38.0718300  10.0871130 141.0170990  34.6563230  11.2071630
 141.8941170  34.6646630  11.5905630 141.0291830  33.9194070  10.5963980
 142.4634260  38.5092770   2.0959650 142.9871740  38.0155420   1.4649820
 143.0493680  38.6443130   2.8407220 142.6423980  38.5932640   5.6179200
 141.6926690  38.5596180   5.7324190 142.8236990  39.5032750   5.3828970
 127.8334770  32.1479840   3.6703100 128.4810960  31.5977220   3.2298260
 128.2536610  32.4022990   4.4918910 141.7287110  32.3421200   7.0272740
 142.3659330  32.9555340   7.3931930 141.8762000  32.3781860   6.0821970
 127.5866770  32.3035510   6.4128420 127.2381590  32.7599330   7.1786600
 127.2554470  31.4092640   6.4950850 129.1931140  45.4755110  10.5781610
 129.1500770  45.1048020  11.4596070 129.3242150  46.4132680  10.7183430
 132.8937170  47.0314700   6.1791330 132.6528530  47.2989260   5.2921850
 133.8339810  47.2020430   6.2342190 135.0991590  33.4947390   9.9347840
 135.0380480  34.0869220  10.6843250 136.0391970  33.3873350   9.7898100
 137.7366150  33.1517450   9.5740130 138.3506560  33.4696740   8.9121210
 138.2815710  32.6666040  10.1935990 144.1541330  49.0509080   6.9801970
 143.6599610  49.4477950   6.2629100 143.5454620  48.4258290   7.3739250
 128.2587410  31.8311710   9.6879190 128.8070400  31.6499760   8.9245300
 128.3242720  31.0405820  10.2235500 129.0319170  48.4217360   7.6979390
 128.4379490  48.2902060   8.4369430 129.0243010  47.5855500   7.2321490
 138.4774190  31.7149590   5.9009420 137.6034030  32.0484700   5.6982350
 138.3684940  31.2422770   6.7261290 139.3846170  33.9220460   7.2851140
 139.0559530  33.1072220   6.9052870 140.3328470  33.8790270   7.1616830
 141.8380780  49.6932500   4.2588710 141.3783750  50.4448310   3.8846730
 141.2093240  48.9738970   4.2003510 128.6631400  45.7875740   6.6487430
 127.9365460  45.1681030   6.5813380 128.7240550  46.1816350   5.7785510
 132.2676500  48.0020740   3.4336840 132.7841520  47.3908100   2.9085100
 132.9173880  48.5049520   3.9247850 135.0072000  48.8929230   4.2605820
 135.2949810  48.6383530   3.3838830 135.5195220  48.3406590   4.8511390
 136.2249010  32.6319430   4.8402330 135.4420800  33.1064930   5.1199090
 135.9311940  31.7274260   4.7315510 140.7770080  33.3342530   2.8851420
 141.2178170  33.2787630   2.0373020 140.5077670  34.2500540   2.9561600
 135.0744360  49.8145330  11.6274020 136.0011670  49.5789600  11.6709980
 135.0594790  50.6417330  11.1460050 132.2607970  32.4790080  11.3915900
 131.9792240  32.9823680  10.6276720 132.6427670  31.6811830  11.0258030
 138.8623430  31.8943660  11.9696370 138.7488880  32.2138270  12.8647890
 139.6793170  32.2956170  11.6733650 141.6421920  49.0415190  11.4515060
 142.4347240  48.5464420  11.2441020 141.9355070  49.7205330  12.0590670
 137.7681580  21.1392640  57.4305070 137.6875630  20.2247250  57.1596780
 137.3546000  21.6359710  56.7244780 135.8999620  22.9171660  59.3114340
 135.1241720  22.4372100  59.6012910 136.5512550  22.2377310  59.1370500
 139.9207050  27.3231850  58.0913470 139.4588580  26.5519090  58.4200640
 140.7332600  27.3497920  58.5965920 128.3257400  18.1893360  53.9732490
 127.4374100  18.5309330  53.8712370 128.6098590  17.9893680  53.0813320
 126.2890410  20.7899010  59.8572190 126.8606520  20.0221210  59.8575830
 126.2891950  21.0887770  58.9478800 136.1470360  29.6089860  57.7117460
 135.5281800  30.0647360  57.1411900 137.0022140  29.7641320  57.3107160
 135.3408610  25.5928850  59.3184500 135.2716890  24.6518790  59.1573630
 136.1028470  25.6830260  59.8907070 136.3713780  18.3999230  59.5453430
 136.7478600  17.5271110  59.4327100 136.2733290  18.7357930  58.6543870
 140.1537900  15.8949670  56.4781770 140.9747520  15.4046240  56.5207250
 140.1871980  16.4847330  57.2313610 132.3426520  19.7411230  59.3396050
 132.8504740  20.2392200  59.9801070 132.8739760  18.9646430  59.1635410
 137.0133710  24.4929100  55.1049370 136.3950980  24.9578550  54.5412090
 137.5256960  25.1856580  55.5218880 140.3899380  17.8350050  59.2509310
 139.6854950  18.1234940  59.8312420 140.7511540  18.6450160  58.8908870
 126.3816910  25.1785630  52.4789000 126.0044890  25.6672730  51.7473900
 126.6389980  25.8510910  53.1095530 143.4586300  17.2804840  59.6418520
 142.5111210  17.3143820  59.7733950 143.7836290  18.0943790  60.0267880
 133.9905840  13.5802020  57.9374510 134.2980820  13.0248910  57.2210010
 133.0606540  13.7146480  57.7547500 139.5420900  29.2969310  60.2281970
 139.5548060  28.8931600  59.3604230 138.9896120  30.0716600  60.1243400
 140.8366320  26.0185530  55.3172140 140.7262650  25.0759860  55.4421560
 140.8334570  26.3801170  56.2034900 136.3786600  21.6450850  54.6734630
 135.4515880  21.5788230  54.9023100 136.5311420  22.5830980  54.5589870
 136.3655680  17.9167850  51.6701790 135.4259350  18.0781810  51.7554250
 136.6838940  18.6353530  51.1237780 140.4083890  23.2071150  55.1769880
 139.7896310  22.8690700  54.5296180 140.3908340  22.5630910  55.8849070
 131.9843240  22.1715590  57.4554360 131.5800240  21.4592840  56.9600260
 132.0706360  21.8268830  58.3442400 132.4524940  25.8583150  59.6193570
 132.1553230  25.2528620  58.9401350 133.4024760  25.8960460  59.5082930
 138.5848590  22.4457960  52.1842630 139.0241870  21.6080390  52.0380450
 139.2977010  23.0787360  52.2706770 136.6943970  27.3854030  56.1523870
 137.1339880  28.1278360  55.7379260 136.6330860  27.6280600  57.0762830
 142.1665730  13.7000770  50.4983670 141.8538390  13.7927600  51.3982740
 142.9278200  14.2781800  50.4481100 128.6847870  21.0660570  54.9561010
 128.5645470  21.7922660  54.3442280 128.3748760  20.2963480  54.4788920
 127.5680870  25.9375900  57.1735830 127.1608950  26.0790490  56.3189430
 128.4593880  25.6536060  56.9707040 139.3614150  30.3723150  53.5086880
 139.2015290  30.0826090  54.4068710 139.1960860  29.5963280  52.9732110
 131.8402530  30.1521680  55.2858500 131.6645010  29.2357220  55.0726300
 130.9858270  30.5108970  55.5256300 139.0640280  27.8810710  52.0684880
 138.3705440  27.8788000  51.4087160 139.8063140  27.4570030  51.6379050
 138.6290210  29.5073420  56.1433370 139.0847160  28.7262800  56.4571990
 138.9682730  30.2180240  56.6874550 131.1511530  14.4095640  58.3384680
 130.7079680  15.1905180  58.0069200 131.7096520  14.7325530  59.0455620
 134.2670350  14.0306340  53.2190510 133.6424530  14.0266210  53.9443820
 134.1800470  13.1637300  52.8226480 133.1887430  14.9542970  60.1974280
 133.4859760  15.8605800  60.1166300 133.7372990  14.4661750  59.5833850
 130.9425750  19.5329210  56.0665930 130.7166670  19.3166380  56.9712550
 130.1618280  19.9657670  55.7211900 138.1723510  19.5392580  54.6656580
 137.5732400  20.2628380  54.4820200 138.7203120  19.4769360  53.8833030
 136.7788380  18.1756120  56.6959860 137.1717950  18.4928320  55.8828550
 137.1405230  17.2968000  56.8104380 125.8152550  14.7656920  58.9190060
 125.5265600  15.3359780  59.6315040 126.5598310  14.2861370  59.2821290
 126.0022780  18.7077040  50.1292780 125.9197450  19.6507800  50.2707770
 125.6505840  18.5651950  49.2505130 133.8020910  17.4416070  59.1963130
 133.8056970  17.0006020  58.3467670 134.6972030  17.7633400  59.3034950
 129.6523290  17.3242560  58.1557340 129.3123340  17.8017790  58.9124390
 128.8900610  16.8707680  57.7958440 133.8641060  18.4428150  52.1869890
 133.9853880  18.4014630  53.1355710 133.4789570  19.3052300  52.0316620
 132.8762560  20.7529290  51.5853190 132.3079460  20.3047540  50.9589100
 133.5851560  21.1122070  51.0518340 126.9669370  16.2461540  57.0722010
 126.6816290  15.8817210  57.9100630 126.9048230  15.5142000  56.4585150
 130.4210040  24.7487480  53.8579600 129.6472300  24.2085100  53.6978320
 131.1504670  24.2294090  53.5197360 141.1798020  23.7452840  59.6505990
 141.8997140  24.2408130  59.2602100 140.9779840  23.0670730  59.0059860
 136.6407960  15.1390800  53.7935380 135.8272570  14.6403970  53.7180690
 136.4469910  15.9789050  53.3771730 139.3556350  19.5110450  52.0897540
 140.2435970  19.8227680  51.9148880 139.3261440  18.6382700  51.6978120
 130.4647440  24.4167860  57.4958410 130.9826110  23.6136120  57.4415300
 130.0131460  24.3547000  58.3375240 135.3516940  25.6834140  52.7685710
 135.6932640  26.4276370  52.2729030 134.5229650  25.9965260  53.1310540
 141.6270620  20.8222290  51.5577400 141.5434340  21.2536510  50.7073840
 142.3464810  21.2820640  51.9904220 142.6557870  27.6764550  54.2859530
 142.0134030  27.0220170  54.5603250 142.2688530  28.0819640  53.5100200
 138.2344350  25.0049980  58.1331220 138.5868170  24.4078110  57.4732590
 137.3506680  24.6794210  58.3039470 134.3207630  25.7647670  55.5401630
 135.0078760  26.3116880  55.9209220 133.5340050  26.3088400  55.5751240
 126.4600030  21.3820490  51.0318710 127.3294880  21.6645290  51.3154630
 125.9690350  22.1956360  50.9167520 133.6234840  22.7693700  55.1526990
 134.0797620  23.5798950  55.3787180 133.2723050  22.4516840  55.9845480
 129.5246620  13.1131350  55.6249510 129.3961250  13.1049250  56.5734430
 128.7008640  13.4514440  55.2740520 141.0455250  26.5681010  50.8235880
 140.8192830  25.8511450  51.4160520 140.6551450  26.3193450  49.9857630
 126.8271280  30.5947870  51.5980340 127.1868920  31.1937210  50.9437610
 126.6863620  31.1407760  52.3715370 140.6271500  24.4852950  52.4850040
 140.3393200  24.9465640  53.2727920 141.4223670  24.0250720  52.7534260
 132.8439900  27.9779070  52.4154010 132.8350000  28.7108760  51.7998520
 131.9238260  27.7310650  52.5080970 128.4446540  23.1993960  53.1600770
 127.8374490  23.9392860  53.1696070 128.9195890  23.2893320  52.3338970
 141.3841360  16.3201720  53.6445220 140.7554520  16.4247390  52.9303450
 140.8893280  16.5398500  54.4339100 135.8299500  28.0407310  51.0779200
 135.9311480  27.8371300  50.1481180 134.9301240  27.7865590  51.2826980
 133.3525390  18.5987670  55.0603100 132.6441540  19.0674010  55.5016710
 133.6369870  17.9409680  55.6948290 137.3840820  15.3238330  56.4998890
 137.2608600  15.3424460  55.5508400 138.3325380  15.3717270  56.6197290
 131.5560410  16.9072750  52.4353810 132.4050940  17.3442900  52.3694000
 131.1891680  17.2193010  53.2625870 140.4770190  21.4785510  57.3485380
 139.5360330  21.4935740  57.5233070 140.7914260  20.6921470  57.7945680
 130.4551830  23.1605110  50.9089340 131.2215100  23.0486470  51.4714770
 130.5326520  22.4643080  50.2566110 129.1498590  20.5930180  51.5922230
 129.2302180  19.6457690  51.7039630 130.0418340  20.9237060  51.6982890
 142.4795770  28.6494360  59.0239640 142.6043190  29.4725530  59.4963450
 143.3461330  28.4385090  58.6763790 129.9513300  30.7425570  58.6956770
 130.6875780  30.1941030  58.9665340 130.3354220  31.6081580  58.5562760
 126.8358780  26.8099140  54.5698280 125.9098560  27.0520280  54.5603690
 127.3015210  27.6373400  54.4483030 133.0615610  29.9155880  50.5182340
 133.8544220  30.2044710  50.0664130 132.5419960  29.4848050  49.8394820
 142.1145780  29.1426010  51.9419080 141.8287290  28.7291150  51.1273260
 141.9165330  30.0713720  51.8219600 133.5793010  25.1359290  50.3824690
 133.4743650  24.5211640  51.1086070 133.4117230  24.6125180  49.5987700
 136.8195740  24.1979320  50.9866680 136.2705840  24.6448620  51.6309420
 137.4415000  23.6928570  51.5104350 132.4870860  23.1570240  52.8831980
 132.9087280  22.9910110  53.7263370 132.6121700  22.3470470  52.3887120
 134.9998500  22.1807850  50.1309080 135.5204160  21.4656870  49.7650230
 135.6466900  22.8193720  50.4309590 131.3829760  19.2303470  49.8290140
 131.1818820  18.3670830  50.1903480 131.2121810  19.1436830  48.8911740
 138.8618070  14.0411700  52.3577020 139.1420360  13.1979600  52.7136440
 138.0883800  14.2734810  52.8715770 130.1812560  16.3304090  49.8168020
 130.4838460  16.3371520  48.9087170 130.9207150  15.9801950  50.3135680
 133.3997490  15.2738710  50.8024220 133.0519490  14.5962700  50.2226670
 133.6010260  14.8128220  51.6167610 135.5646530  30.2619460  52.4210820
 136.4597320  30.6004430  52.4429580 135.5964160  29.5398870  51.7935100
 129.2042690  25.6346510  50.6497820 129.6417560  26.1776180  51.3055400
 129.6890420  24.8093460  50.6594160 126.4188490  28.4235540  58.1018080
 126.7491500  27.5556600  57.8696720 126.8479490  28.6294060  58.9323040
 131.0150410  26.7544550  55.7620050 130.7145950  26.6309520  56.6623960
 130.9087900  25.8953140  55.3535780 143.7842330  26.5340950  50.4646730
 142.9535290  26.6017600  50.9353960 143.9614160  27.4245070  50.1613590
 143.2398790  23.2788430  52.9680930 144.0017700  23.8485080  53.0740620
 143.2553160  22.7115630  53.7389240 126.7403130  21.8026360  57.1988590
 126.0851970  21.5338000  56.5548290 127.5781080  21.6930840  56.7490570
 144.2458760  24.1338530  57.8122860 144.6167590  23.3505850  57.4058830
 144.8860690  24.8227630  57.6340160 143.2917960  23.5722800  50.1253450
 143.5666800  24.4801680  49.9972670 143.1028700  23.5085330  51.0615440
 139.6893570  16.5967650  51.4207080 140.1078450  16.4098630  50.5803740
 139.3829630  15.7446700  51.7310010 143.1883300  21.5091790  55.1182880
 142.8126900  20.7419720  54.6864170 142.4586420  21.8914490  55.6057810
 125.9541210  19.0125290  53.1413920 125.0505290  19.2755490  52.9665580
 126.4381830  19.2836460  52.3613880 142.4634260  19.7349280  58.4190120
 142.9871740  19.2411930  57.7880290 143.0493680  19.8699640  59.1637690
 128.4968420  18.0690830  51.0508300 129.2060120  17.6474050  50.5655580
 127.7808360  18.1366060  50.4191650 128.1442580  14.1230160  50.0910950
 128.8670710  14.6639100  50.4092170 128.4167100  13.8493580  49.2152490
 141.9534230  18.9922630  54.3582530 142.4493350  18.7593500  55.1431410
 141.7550300  18.1534470  53.9420170 143.3821390  17.6283580  56.8920210
 143.2720670  17.4739620  57.8302480 144.1428980  17.1004520  56.6495620
 144.2711660  15.4591500  50.1326350 145.1960970  15.3272680  49.9244640
 144.2487450  15.5384320  51.0862800 144.3450150  16.2302160  52.7583060
 143.5501650  16.1647280  53.2875970 144.5493430  17.1652800  52.7468410
 141.2868570  30.2693710  56.7521450 141.8827640  29.9478280  56.0755870
 141.5446720  29.7965530  57.5434720 132.2676500  29.2277250  59.7567310
 132.7841520  28.6164610  59.2315570 132.9173880  29.7306030  60.2478320
 140.7770080  14.5599040  59.2081890 141.2178170  14.5044140  58.3603490
 140.5077670  15.4757050  59.2792070 142.6408650  14.1914280  57.2190710
 142.5797050  13.2475500  57.0721730 143.4200680  14.2994370  57.7644170
 126.9461400  30.3306640  56.1814660 126.7783440  29.6977320  56.8796550
 126.0795910  30.5366040  55.8308850 127.5689420  14.1623420  53.6846520
 128.3268780  14.2752300  53.1110550 127.1066590  14.9992620  53.6389950
 134.1103230  16.2762690  56.6748830 133.2977740  15.9019580  56.3344710
 134.6144870  15.5207770  56.9770020 138.6128210  12.9405140  57.9131900
 139.2157580  13.5125350  58.3880420 137.8721200  13.5044580  57.6905800
 141.7562810  13.3426700  53.1872180 141.9513440  14.2410150  53.4539610
 140.9692680  13.1113780  53.6805130 128.5524100  29.0239870  53.6264800
 128.0271720  29.4047900  52.9226760 128.4768680  29.6490640  54.3474510
 129.9414570  14.6887470  52.2248490 130.4707330  13.9017270  52.0956440
 130.5742890  15.3678660  52.4584020 132.1352410  14.4262610  55.2793880
 131.5055150  13.7249920  55.4464010 131.5957550  15.1866740  55.0627040
 143.3089420  30.5827410  54.9478740 143.4841610  29.8965150  54.3039660
 142.6110990  31.1074460  54.5555410 131.1517070  30.9722250  52.5014050
 131.8835890  30.6881530  51.9537940 131.4110740  30.7335530  53.3913430
 130.3131860  27.0886980  52.5060380 129.6840740  27.5572080  53.0546210
 130.4279690  26.2436200  52.9406570 137.7681580  21.1392640  38.6561580
 137.6875630  20.2247250  38.3853290 137.3546000  21.6359710  37.9501290
 135.8999620  22.9171660  40.5370850 135.1241720  22.4372100  40.8269420
 136.5512550  22.2377310  40.3627010 129.9165450  23.2291470  41.4146610
 129.0850330  22.9740180  41.8143120 130.5246430  23.3002240  42.1504530
 139.9207050  27.3231850  39.3169980 139.4588580  26.5519090  39.6457150
 140.7332600  27.3497920  39.8222430 129.8966710  27.2631560  41.6104630
 130.1994750  26.3729300  41.4314850 130.6410300  27.8201780  41.3826880
 128.3257400  18.1893360  35.1989000 127.4374100  18.5309330  35.0968880
 128.6098590  17.9893680  34.3069830 126.2890410  20.7899010  41.0828700
 126.8606520  20.0221210  41.0832340 126.2891950  21.0887770  40.1735310
 136.1470360  29.6089860  38.9373970 135.5281800  30.0647360  38.3668410
 137.0022140  29.7641320  38.5363670 135.3408610  25.5928850  40.5441010
 135.2716890  24.6518790  40.3830140 136.1028470  25.6830260  41.1163580
 127.5315280  16.1983370  42.8697630 127.3518120  15.3009120  43.1500390
 127.1295360  16.7455240  43.5444580 136.3713780  18.3999230  40.7709940
 136.7478600  17.5271110  40.6583610 136.2733290  18.7357930  39.8800380
 130.5018790  16.7724860  36.2327380 130.6085540  17.6728590  36.5396140
 129.5911150  16.7242830  35.9422030 140.1537900  15.8949670  37.7038280
 140.9747520  15.4046240  37.7463760 140.1871980  16.4847330  38.4570120
 128.1501950  18.6943870  41.4779970 128.8312060  18.9582240  42.0967370
 127.8350000  17.8544740  41.8117980 132.3426520  19.7411230  40.5652560
 132.8504740  20.2392200  41.2057580 132.8739760  18.9646430  40.3891920
 144.4437450  17.9116420  44.2681910 143.7389620  18.2998130  43.7497020
 144.7095370  18.6066710  44.8702840 130.6262620  14.3809790  44.8315980
 130.6281060  14.8982180  44.0261880 129.7966930  13.9039970  44.8085910
 137.0133710  24.4929100  36.3305880 136.3950980  24.9578550  35.7668600
 137.5256960  25.1856580  36.7475390 131.8765470  24.0204970  43.0089480
 131.5434850  24.6473890  43.6510550 132.0532150  24.5466850  42.2291150
 140.3899380  17.8350050  40.4765820 139.6854950  18.1234940  41.0568930
 140.7511540  18.6450160  40.1165380 130.3077950  16.0919750  42.8386430
 130.6494760  16.9361800  42.5440300 129.3693760  16.2403490  42.9551770
 131.0884570  25.9885770  44.8238660 131.7058570  26.6636850  44.5423110
 130.2277690  26.3973750  44.7326160 126.3816910  25.1785630  33.7045510
 126.0044890  25.6672730  32.9730410 126.6389980  25.8510910  34.3352040
 142.0062160  27.4525180  42.7393300 141.3225680  28.1224290  42.7309970
 142.5456450  27.6505830  41.9738160 143.4586300  17.2804840  40.8675030
 142.5111210  17.3143820  40.9990460 143.7836290  18.0943790  41.2524390
 133.9905840  13.5802020  39.1631020 134.2980820  13.0248910  38.4466520
 133.0606540  13.7146480  38.9804010 139.5420900  29.2969310  41.4538480
 139.5548060  28.8931600  40.5860740 138.9896120  30.0716600  41.3499910
 140.8366320  26.0185530  36.5428650 140.7262650  25.0759860  36.6678070
 140.8334570  26.3801170  37.4291410 138.9406340  24.1999150  42.7821090
 139.3575130  23.9859260  41.9474550 139.6646160  24.4571940  43.3529710
 136.3786600  21.6450850  35.8991140 135.4515880  21.5788230  36.1279610
 136.5311420  22.5830980  35.7846380 136.3655680  17.9167850  32.8958300
 135.4259350  18.0781810  32.9810760 136.6838940  18.6353530  32.3494290
 142.8868440  22.5986370  42.8737330 142.0587070  22.6679460  42.3987460
 143.4818920  23.1840680  42.4053160 140.4083890  23.2071150  36.4026390
 139.7896310  22.8690700  35.7552690 140.3908340  22.5630910  37.1105580
 139.8510450  19.3855690  43.8192200 139.4381630  20.2109400  44.0732190
 139.1186400  18.8000730  43.6268560 131.9843240  22.1715590  38.6810870
 131.5800240  21.4592840  38.1856770 132.0706360  21.8268830  39.5698910
 132.4524940  25.8583150  40.8450080 132.1553230  25.2528620  40.1657860
 133.4024760  25.8960460  40.7339440 130.6971860  18.9458800  42.4609910
 131.2486450  19.0554140  41.6863160 131.2115370  19.3196400  43.1765140
 140.5410550  29.4315020  44.5073180 140.0641110  30.2387210  44.3145790
 139.8572340  28.7793350  44.6599390 131.5443370  25.5964840  47.4957880
 130.6471900  25.8204810  47.7431280 131.5696240  25.7199780  46.5469280
 138.5848590  22.4457960  33.4099140 139.0241870  21.6080390  33.2636960
 139.2977010  23.0787360  33.4963280 130.3714590  22.4678160  46.0715250
 130.2322360  23.3400960  46.4402650 129.4895950  22.1250970  45.9263190
 136.6943970  27.3854030  37.3780380 137.1339880  28.1278360  36.9635770
 136.6330860  27.6280600  38.3019340 132.1694940  28.4099860  48.2800400
 132.1410370  28.8142810  47.4128830 132.0059910  27.4810220  48.1172000
 142.1665730  13.7000770  31.7240180 141.8538390  13.7927600  32.6239250
 142.9278200  14.2781800  31.6737610 128.6847870  21.0660570  36.1817520
 128.5645470  21.7922660  35.5698790 128.3748760  20.2963480  35.7045430
 144.1209760  29.1926960  49.5764570 144.5969480  29.6709850  50.2553650
 144.7416920  29.1244450  48.8510070 126.3233240  24.2375710  41.9886160
 126.4013660  24.3724480  41.0441880 126.9374920  23.5291600  42.1814280
 127.5680870  25.9375900  38.3992340 127.1608950  26.0790490  37.5445940
 128.4593880  25.6536060  38.1963550 143.5243010  26.3839810  46.7364580
 143.6506070  26.1451690  45.8181760 143.5664390  25.5524350  47.2086660
 137.3859750  30.0867810  45.3059390 137.9004420  29.9975820  46.1081820
 136.5428830  30.4327510  45.5987300 131.8402530  30.1521680  36.5115010
 131.6645010  29.2357220  36.2982810 130.9858270  30.5108970  36.7512810
 138.6290210  29.5073420  37.3689880 139.0847160  28.7262800  37.6828500
 138.9682730  30.2180240  37.9131060 143.3767020  18.4372270  47.7014320
 142.7611290  18.9451940  47.1729780 143.0563440  17.5370600  47.6440260
 126.3792760  25.2789880  44.5280620 126.5423800  24.8095240  43.7099990
 126.8445210  24.7713440  45.1929460 131.1511530  14.4095640  39.5641190
 130.7079680  15.1905180  39.2325710 131.7096520  14.7325530  40.2712130
 135.4381340  17.2764160  45.1676510 134.9760710  17.4847180  45.9796450
 135.0359450  16.4623510  44.8647180 140.4385850  18.4973110  46.2973170
 139.5879440  18.1978860  46.6182240 140.2787640  18.7415120  45.3856990
 137.5335560  19.9974860  48.3971960 137.8588970  19.1638610  48.0574190
 138.3215890  20.5203380  48.5450290 134.2670350  14.0306340  34.4447020
 133.6424530  14.0266210  35.1700330 134.1800470  13.1637300  34.0482990
 133.1887430  14.9542970  41.4230790 133.4859760  15.8605800  41.3422810
 133.7372990  14.4661750  40.8090360 130.9425750  19.5329210  37.2922440
 130.7166670  19.3166380  38.1969060 130.1618280  19.9657670  36.9468410
 138.1723510  19.5392580  35.8913090 137.5732400  20.2628380  35.7076710
 138.7203120  19.4769360  35.1089540 133.3824960  20.4314790  47.9582710
 133.2868560  19.4909520  47.8083110 134.2256940  20.6529860  47.5630780
 136.7788380  18.1756120  37.9216370 137.1717950  18.4928320  37.1085060
 137.1405230  17.2968000  38.0360890 128.5135500  16.8428460  46.1116490
 128.1198890  17.6903670  46.3189270 127.8253900  16.2054830  46.3025130
 135.0880550  16.9263430  49.1813230 134.3978870  16.7335630  49.8159320
 135.8312850  17.2098070  49.7137530 125.8152550  14.7656920  40.1446570
 125.5265600  15.3359780  40.8571550 126.5598310  14.2861370  40.5077800
 126.0022780  18.7077040  31.3549290 125.9197450  19.6507800  31.4964280
 125.6505840  18.5651950  30.4761640 137.3643520  20.7661870  42.0167150
 136.6324640  21.2748680  42.3657250 136.9667860  19.9491850  41.7155930
 133.8020910  17.4416070  40.4219640 133.8056970  17.0006020  39.5724180
 134.6972030  17.7633400  40.5291460 129.6523290  17.3242560  39.3813850
 129.3123340  17.8017790  40.1380900 128.8900610  16.8707680  39.0214950
 133.8641060  18.4428150  33.4126400 133.9853880  18.4014630  34.3612220
 133.4789570  19.3052300  33.2573130 137.8269430  16.2195550  41.4290090
 137.8442170  16.6704200  42.2731940 137.5785010  15.3201190  41.6423530
 132.8762560  20.7529290  32.8109700 132.3079460  20.3047540  32.1845610
 133.5851560  21.1122070  32.2774850 141.2540180  13.6327730  47.2676470
 141.5785950  12.9017390  47.7934450 141.2896690  13.3141370  46.3657460
 127.9531740  24.6541310  46.6876430 127.5686530  24.0134980  47.2859390
 128.2643930  25.3577430  47.2571160 134.1028880  21.5017850  42.1685050
 134.4699010  21.0276420  42.9146390 133.9133940  22.3759420  42.5093390
 126.9669370  16.2461540  38.2978520 126.6816290  15.8817210  39.1357140
 126.9048230  15.5142000  37.6841660 131.8928250  20.5426490  44.4869260
 131.5885320  21.4218470  44.7119620 132.8474710  20.6026280  44.5226700
 130.4210040  24.7487480  35.0836110 129.6472300  24.2085100  34.9234830
 131.1504670  24.2294090  34.7453870 141.1798020  23.7452840  40.8762500
 141.8997140  24.2408130  40.4858610 140.9779840  23.0670730  40.2316370
 136.6407960  15.1390800  35.0191890 135.8272570  14.6403970  34.9437200
 136.4469910  15.9789050  34.6028240 136.5616820  23.8161900  46.7631500
 136.4954130  22.8957570  46.5089090 135.9321960  23.9137340  47.4776140
 139.3556350  19.5110450  33.3154050 140.2435970  19.8227680  33.1405390
 139.3261440  18.6382700  32.9234630 130.4647440  24.4167860  38.7214920
 130.9826110  23.6136120  38.6671810 130.0131460  24.3547000  39.5631750
 135.3516940  25.6834140  33.9942220 135.6932640  26.4276370  33.4985540
 134.5229650  25.9965260  34.3567050 127.9491980  21.3829230  45.6340620
 127.5906920  22.0483080  46.2213960 127.6546540  20.5512780  46.0053240
 131.1505100  21.8413470  48.5180170 130.8505240  21.9870650  47.6207990
 131.9216340  21.2818760  48.4253560 136.4933550  26.6382470  46.5135300
 136.5078090  25.7063430  46.2954210 135.7858650  26.7242230  47.1525070
 141.6270620  20.8222290  32.7833910 141.5434340  21.2536510  31.9330350
 142.3464810  21.2820640  33.2160730 142.7044760  23.2789810  45.8603880
 141.9792950  23.8718590  45.6633270 143.2320220  23.2713350  45.0617250
 142.6557870  27.6764550  35.5116040 142.0134030  27.0220170  35.7859760
 142.2688530  28.0819640  34.7356710 138.2344350  25.0049980  39.3587730
 138.5868170  24.4078110  38.6989100 137.3506680  24.6794210  39.5295980
 134.3207630  25.7647670  36.7658140 135.0078760  26.3116880  37.1465730
 133.5340050  26.3088400  36.8007750 126.4600030  21.3820490  32.2575220
 127.3294880  21.6645290  32.5411140 125.9690350  22.1956360  32.1424030
 133.6234840  22.7693700  36.3783500 134.0797620  23.5798950  36.6043690
 133.2723050  22.4516840  37.2101990 135.9267450  28.2800040  43.6075800
 136.5709670  28.4859420  44.2849220 136.2896890  27.5188440  43.1546650
 129.5246620  13.1131350  36.8506020 129.3961250  13.1049250  37.7990940
 128.7008640  13.4514440  36.4997030 137.1999530  26.2832390  42.3253250
 137.8421760  25.5825550  42.4385420 137.7248880  27.0630830  42.1450140
 138.9737150  27.0827290  45.5289310 139.3093390  27.6693980  46.2067230
 138.0537490  26.9520000  45.7587100 126.5240550  14.8722470  46.3112720
 125.8099070  15.0719390  46.9165330 126.9435590  14.0962040  46.6827520
 140.6271500  24.4852950  33.7106550 140.3393200  24.9465640  34.4984430
 141.4223670  24.0250720  33.9790770 126.8113140  28.8602730  47.2979250
 126.9204260  27.9197470  47.1574640 126.1593700  29.1257480  46.6492980
 134.8025730  27.1318620  48.6977370 134.4822600  26.4127860  49.2423060
 134.1284090  27.8073690  48.7713430 132.8439900  27.9779070  33.6410520
 132.8350000  28.7108760  33.0255030 131.9238260  27.7310650  33.7337480
 128.4446540  23.1993960  34.3857280 127.8374490  23.9392860  34.3952580
 128.9195890  23.2893320  33.5595480 138.0179330  17.3644780  44.0614170
 138.3860150  16.5439990  44.3893740 137.1577530  17.4246670  44.4769820
 141.3841360  16.3201720  34.8701730 140.7554520  16.4247390  34.1559960
 140.8893280  16.5398500  35.6595610 135.8299500  28.0407310  32.3035710
 135.9311480  27.8371300  31.3737690 134.9301240  27.7865590  32.5083490
 133.3525390  18.5987670  36.2859610 132.6441540  19.0674010  36.7273220
 133.6369870  17.9409680  36.9204800 134.9781320  20.0184370  44.2852140
 135.4766570  20.4930190  44.9503990 135.1204270  19.0947890  44.4922170
 137.3840820  15.3238330  37.7255400 137.2608600  15.3424460  36.7764910
 138.3325380  15.3717270  37.8453800 134.4717610  30.5593630  36.9983380
 134.7259110  30.5215020  36.0762750 133.5230090  30.4326960  36.9911630
 131.5560410  16.9072750  33.6610320 132.4050940  17.3442900  33.5950510
 131.1891680  17.2193010  34.4882380 142.1848180  16.2352330  45.1280530
 141.6821780  16.9757730  45.4674340 143.0004840  16.6236330  44.8117320
 140.4770190  21.4785510  38.5741890 139.5360330  21.4935740  38.7489580
 140.7914260  20.6921470  39.0202190 130.4551830  23.1605110  32.1345850
 131.2215100  23.0486470  32.6971280 130.5326520  22.4643080  31.4822620
 129.1498590  20.5930180  32.8178740 129.2302180  19.6457690  32.9296140
 130.0418340  20.9237060  32.9239400 142.4795770  28.6494360  40.2496150
 142.6043190  29.4725530  40.7219960 143.3461330  28.4385090  39.9020300
 129.9513300  30.7425570  39.9213280 130.6875780  30.1941030  40.1921850
 130.3354220  31.6081580  39.7819270 126.8358780  26.8099140  35.7954790
 125.9098560  27.0520280  35.7860200 127.3015210  27.6373400  35.6739540
 128.9571580  29.9271640  49.1098860 129.7584310  30.2483690  49.5234260
 128.4423400  29.5667220  49.8318770 133.0615610  29.9155880  31.7438850
 133.8544220  30.2044710  31.2920640 132.5419960  29.4848050  31.0651330
 137.7936210  26.0351510  49.0574270 137.1874370  26.0583110  48.3170020
 137.4890320  25.3034550  49.5941520 139.2236580  29.7631800  47.6683680
 140.1758330  29.6789820  47.6183920 139.0764800  30.4273510  48.3417470
 126.6769390  22.4145100  48.0534910 127.1808410  21.8352380  48.6251140
 125.9376810  22.6985330  48.5911280 133.5793010  25.1359290  31.6081200
 133.4743650  24.5211640  32.3342580 133.4117230  24.6125180  30.8244210
 133.7307330  23.8216090  47.5870430 132.9653000  24.3901090  47.5025100
 133.9123290  23.5292300  46.6938660 136.8195740  24.1979320  32.2123190
 136.2705840  24.6448620  32.8565930 137.4415000  23.6928570  32.7360860
 140.8730680  25.5521420  48.1445450 141.6140150  25.8897180  47.6412910
 140.1103360  25.7213480  47.5915220 128.7092470  20.5574690  48.9484980
 128.7497810  20.2588560  49.8570210 129.5637970  20.9582300  48.7892500
 132.4870860  23.1570240  34.1088490 132.9087280  22.9910110  34.9519880
 132.6121700  22.3470470  33.6143630 130.6498280  19.1366790  46.9159470
 130.1194740  18.6457740  46.2882810 131.3186350  19.5650990  46.3817400
 134.9998500  22.1807850  31.3565590 135.5204160  21.4656870  30.9906740
 135.6466900  22.8193720  31.6566100 139.5476340  23.6036250  46.6800660
 139.9617360  23.7581330  47.5291080 138.6127340  23.7291470  46.8426440
 140.0198510  20.9432410  48.6839810 140.6019280  20.1884730  48.5960290
 140.1960280  21.4739850  47.9071290 131.1370580  16.1029160  46.9956760
 131.0427450  15.4849910  46.2707630 130.5567970  16.8295450  46.7686670
 133.9032020  14.6602400  44.0284150 133.4549320  14.6826660  43.1829700
 133.2697220  14.2621420  44.6254450 134.3091570  23.5556730  44.6496590
 134.7279680  24.3989460  44.4772830 133.3900200  23.6928770  44.4203370
 136.6455470  21.2872910  46.0334430 136.7651680  20.6914050  46.7729270
 137.5049470  21.3242600  45.6135730 138.9843370  21.8410100  44.6096940
 138.4578590  22.3652720  44.0062080 139.3274710  22.4737490  45.2406670
 131.3829760  19.2303470  31.0546650 131.1818820  18.3670830  31.4159990
 131.2121810  19.1436830  30.1168250 132.1598990  29.8609740  45.7654320
 131.6220080  30.5855800  45.4463020 132.4132950  29.3840080  44.9751660
 133.4124240  17.8294260  47.2910250 134.0023930  17.5210110  47.9788070
 132.5944480  17.3574010  47.4470150 138.2317670  17.4460070  47.5243270
 137.5433190  16.7841610  47.4593260 138.9523690  16.9998340  47.9691730
 138.8618070  14.0411700  33.5833530 139.1420360  13.1979600  33.9392950
 138.0883800  14.2734810  34.0972280 130.1812560  16.3304090  31.0424530
 130.4838460  16.3371520  30.1343680 130.9207150  15.9801950  31.5392190
 135.0161200  31.0960950  46.0240970 134.9419900  31.9996090  46.3313340
 134.1140040  30.7772850  45.9963040 133.3997490  15.2738710  32.0280730
 133.0519490  14.5962700  31.4483180 133.6010260  14.8128220  32.8424120
 135.5646530  30.2619460  33.6467330 136.4597320  30.6004430  33.6686090
 135.5964160  29.5398870  33.0191610 129.2042690  25.6346510  31.8754330
 129.6417560  26.1776180  32.5311910 129.6890420  24.8093460  31.8850670
 126.4188490  28.4235540  39.3274590 126.7491500  27.5556600  39.0953230
 126.8479490  28.6294060  40.1579550 131.0150410  26.7544550  36.9876560
 130.7145950  26.6309520  37.8880470 130.9087900  25.8953140  36.5792290
 126.9078700  29.2906130  42.0656220 126.4709690  29.4706930  42.8980370
 127.4756380  30.0480750  41.9237940 142.5440880  28.7923130  46.3533530
 141.9442870  28.8515690  45.6097450 142.6734780  27.8528110  46.4830380
 143.2398790  23.2788430  34.1937440 144.0017700  23.8485080  34.2997130
 143.2553160  22.7115630  34.9645750 126.7403130  21.8026360  38.4245100
 126.0851970  21.5338000  37.7804800 127.5781080  21.6930840  37.9747080
 144.2458760  24.1338530  39.0379370 144.6167590  23.3505850  38.6315340
 144.8860690  24.8227630  38.8596670 141.2292520  25.5175110  44.4509690
 140.4152360  25.9472270  44.7135480 141.6366720  26.1293520  43.8378740
 143.2917960  23.5722800  31.3509960 143.5666800  24.4801680  31.2229180
 143.1028700  23.5085330  32.2871950 139.6893570  16.5967650  32.6463590
 140.1078450  16.4098630  31.8060250 139.3829630  15.7446700  32.9566520
 143.1883300  21.5091790  36.3439390 142.8126900  20.7419720  35.9120680
 142.4586420  21.8914490  36.8314320 127.7779060  22.1878930  42.9648440
 128.1452100  22.1006330  43.8444460 127.2089880  21.4245480  42.8655300
 142.5782920  20.6563310  45.9778910 142.3469010  20.4276060  45.0776860
 142.8387470  21.5762860  45.9323800 127.3295060  19.0988020  46.8706860
 126.4351110  19.0654780  47.2100570 127.8692610  19.2974810  47.6358110
 141.0170990  15.8819740  48.7558610 141.8941170  15.8903140  49.1392610
 141.0291830  15.1450580  48.1450960 125.9541210  19.0125290  34.3670430
 125.0505290  19.2755490  34.1922090 126.4381830  19.2836460  33.5870390
 142.4634260  19.7349280  39.6446630 142.9871740  19.2411930  39.0136800
 143.0493680  19.8699640  40.3894200 142.6423980  19.8189150  43.1666180
 141.6926690  19.7852690  43.2811170 142.8236990  20.7289260  42.9315950
 128.4968420  18.0690830  32.2764810 129.2060120  17.6474050  31.7912090
 127.7808360  18.1366060  31.6448160 128.1442580  14.1230160  31.3167460
 128.8670710  14.6639100  31.6348680 128.4167100  13.8493580  30.4409000
 141.9534230  18.9922630  35.5839040 142.4493350  18.7593500  36.3687920
 141.7550300  18.1534470  35.1676680 127.8334770  13.3736350  41.2190080
 128.4810960  12.8233730  40.7785240 128.2536610  13.6279500  42.0405890
 143.3821390  17.6283580  38.1176720 143.2720670  17.4739620  39.0558990
 144.1428980  17.1004520  37.8752130 141.7287110  13.5677710  44.5759720
 142.3659330  14.1811850  44.9418910 141.8762000  13.6038370  43.6308950
 144.2711660  15.4591500  31.3582860 145.1960970  15.3272680  31.1501150
 144.2487450  15.5384320  32.3119310 144.3450150  16.2302160  33.9839570
 143.5501650  16.1647280  34.5132480 144.5493430  17.1652800  33.9724920
 141.2868570  30.2693710  37.9777960 141.8827640  29.9478280  37.3012380
 141.5446720  29.7965530  38.7691230 127.5866770  13.5292020  43.9615400
 127.2381590  13.9855840  44.7273580 127.2554470  12.6349150  44.0437830
 129.1931140  26.7011620  48.1268590 129.1500770  26.3304530  49.0083050
 129.3242150  27.6389190  48.2670410 132.8937170  28.2571210  43.7278310
 132.6528530  28.5245770  42.8408830 133.8339810  28.4276940  43.7829170
 135.0991590  14.7203900  47.4834820 135.0380480  15.3125730  48.2330230
 136.0391970  14.6129860  47.3385080 137.7366150  14.3773960  47.1227110
 138.3506560  14.6953250  46.4608190 138.2815710  13.8922550  47.7422970
 144.1541330  30.2765590  44.5288950 143.6599610  30.6734460  43.8116080
 143.5454620  29.6514800  44.9226230 128.2587410  13.0568220  47.2366170
 128.8070400  12.8756270  46.4732280 128.3242720  12.2662330  47.7722480
 129.0319170  29.6473870  45.2466370 128.4379490  29.5158570  45.9856410
 129.0243010  28.8112010  44.7808470 138.4774190  12.9406100  43.4496400
 137.6034030  13.2741210  43.2469330 138.3684940  12.4679280  44.2748270
 139.3846170  15.1476970  44.8338120 139.0559530  14.3328730  44.4539850
 140.3328470  15.1046780  44.7103810 141.8380780  30.9189010  41.8075690
 141.3783750  31.6704820  41.4333710 141.2093240  30.1995480  41.7490490
 128.6631400  27.0132250  44.1974410 127.9365460  26.3937540  44.1300360
 128.7240550  27.4072860  43.3272490 132.2676500  29.2277250  40.9823820
 132.7841520  28.6164610  40.4572080 132.9173880  29.7306030  41.4734830
 135.0072000  30.1185740  41.8092800 135.2949810  29.8640040  40.9325810
 135.5195220  29.5663100  42.3998370 136.2249010  13.8575940  42.3889310
 135.4420800  14.3321440  42.6686070 135.9311940  12.9530770  42.2802490
 140.7770080  14.5599040  40.4338400 141.2178170  14.5044140  39.5860000
 140.5077670  15.4757050  40.5048580 142.6408650  14.1914280  38.4447220
 142.5797050  13.2475500  38.2978240 143.4200680  14.2994370  38.9900680
 126.9461400  30.3306640  37.4071170 126.7783440  29.6977320  38.1053060
 126.0795910  30.5366040  37.0565360 127.5689420  14.1623420  34.9103030
 128.3268780  14.2752300  34.3367060 127.1066590  14.9992620  34.8646460
 134.1103230  16.2762690  37.9005340 133.2977740  15.9019580  37.5601220
 134.6144870  15.5207770  38.2026530 138.6128210  12.9405140  39.1388410
 139.2157580  13.5125350  39.6136930 137.8721200  13.5044580  38.9162310
 141.7562810  13.3426700  34.4128690 141.9513440  14.2410150  34.6796120
 140.9692680  13.1113780  34.9061640 128.5524100  29.0239870  34.8521310
 128.0271720  29.4047900  34.1483270 128.4768680  29.6490640  35.5731020
 129.9414570  14.6887470  33.4505000 130.4707330  13.9017270  33.3212950
 130.5742890  15.3678660  33.6840530 132.1352410  14.4262610  36.5050390
 131.5055150  13.7249920  36.6720520 131.5957550  15.1866740  36.2883550
 135.0744360  31.0401840  49.1761000 136.0011670  30.8046110  49.2196960
 135.0594790  31.8673840  48.6947030 143.3089420  30.5827410  36.1735250
 143.4841610  29.8965150  35.5296170 142.6110990  31.1074460  35.7811920
 132.2607970  13.7046590  48.9402880 131.9792240  14.2080190  48.1763700
 132.6427670  12.9068340  48.5745010 131.1517070  30.9722250  33.7270560
 131.8835890  30.6881530  33.1794450 131.4110740  30.7335530  34.6169940
 130.3131860  27.0886980  33.7316890 129.6840740  27.5572080  34.2802720
 130.4279690  26.2436200  34.1663080 138.8623430  13.1200170  49.5183350
 138.7488880  13.4394780  50.4134870 139.6793170  13.5212680  49.2220630
 141.6421920  30.2671700  49.0002040 142.4347240  29.7720930  48.7928000
 141.9355070  30.9461840  49.6077650 137.7681580  21.1392640  19.8818090
 137.6875630  20.2247250  19.6109800 137.3546000  21.6359710  19.1757800
 135.8999620  22.9171660  21.7627360 135.1241720  22.4372100  22.0525930
 136.5512550  22.2377310  21.5883520 129.9165450  23.2291470  22.6403120
 129.0850330  22.9740180  23.0399630 130.5246430  23.3002240  23.3761040
 128.3257400  18.1893360  16.4245510 127.4374100  18.5309330  16.3225390
 128.6098590  17.9893680  15.5326340 126.2890410  20.7899010  22.3085210
 126.8606520  20.0221210  22.3088850 126.2891950  21.0887770  21.3991820
 135.3408610  25.5928850  21.7697520 135.2716890  24.6518790  21.6086650
 136.1028470  25.6830260  22.3420090 127.5315280  16.1983370  24.0954140
 127.3518120  15.3009120  24.3756900 127.1295360  16.7455240  24.7701090
 136.3713780  18.3999230  21.9966450 136.7478600  17.5271110  21.8840120
 136.2733290  18.7357930  21.1056890 130.5018790  16.7724860  17.4583890
 130.6085540  17.6728590  17.7652650 129.5911150  16.7242830  17.1678540
 140.1537900  15.8949670  18.9294790 140.9747520  15.4046240  18.9720270
 140.1871980  16.4847330  19.6826630 128.1501950  18.6943870  22.7036480
 128.8312060  18.9582240  23.3223880 127.8350000  17.8544740  23.0374490
 132.3426520  19.7411230  21.7909070 132.8504740  20.2392200  22.4314090
 132.8739760  18.9646430  21.6148430 144.4437450  17.9116420  25.4938420
 143.7389620  18.2998130  24.9753530 144.7095370  18.6066710  26.0959350
 130.6262620  14.3809790  26.0572490 130.6281060  14.8982180  25.2518390
 129.7966930  13.9039970  26.0342420 137.0133710  24.4929100  17.5562390
 136.3950980  24.9578550  16.9925110 137.5256960  25.1856580  17.9731900
 131.8765470  24.0204970  24.2345990 131.5434850  24.6473890  24.8767060
 132.0532150  24.5466850  23.4547660 140.3899380  17.8350050  21.7022330
 139.6854950  18.1234940  22.2825440 140.7511540  18.6450160  21.3421890
 130.3077950  16.0919750  24.0642940 130.6494760  16.9361800  23.7696810
 129.3693760  16.2403490  24.1808280 126.3816910  25.1785630  14.9302020
 126.0044890  25.6672730  14.1986920 126.6389980  25.8510910  15.5608550
 143.4586300  17.2804840  22.0931540 142.5111210  17.3143820  22.2246970
 143.7836290  18.0943790  22.4780900 133.9905840  13.5802020  20.3887530
 134.2980820  13.0248910  19.6723030 133.0606540  13.7146480  20.2060520
 140.8366320  26.0185530  17.7685160 140.7262650  25.0759860  17.8934580
 140.8334570  26.3801170  18.6547920 138.9406340  24.1999150  24.0077600
 139.3575130  23.9859260  23.1731060 139.6646160  24.4571940  24.5786220
 136.3786600  21.6450850  17.1247650 135.4515880  21.5788230  17.3536120
 136.5311420  22.5830980  17.0102890 136.3655680  17.9167850  14.1214810
 135.4259350  18.0781810  14.2067270 136.6838940  18.6353530  13.5750800
 142.8868440  22.5986370  24.0993840 142.0587070  22.6679460  23.6243970
 143.4818920  23.1840680  23.6309670 140.4083890  23.2071150  17.6282900
 139.7896310  22.8690700  16.9809200 140.3908340  22.5630910  18.3362090
 139.8510450  19.3855690  25.0448710 139.4381630  20.2109400  25.2988700
 139.1186400  18.8000730  24.8525070 131.9843240  22.1715590  19.9067380
 131.5800240  21.4592840  19.4113280 132.0706360  21.8268830  20.7955420
 132.4524940  25.8583150  22.0706590 132.1553230  25.2528620  21.3914370
 133.4024760  25.8960460  21.9595950 130.6971860  18.9458800  23.6866420
 131.2486450  19.0554140  22.9119670 131.2115370  19.3196400  24.4021650
 131.5443370  25.5964840  28.7214390 130.6471900  25.8204810  28.9687790
 131.5696240  25.7199780  27.7725790 138.5848590  22.4457960  14.6355650
 139.0241870  21.6080390  14.4893470 139.2977010  23.0787360  14.7219790
 130.3714590  22.4678160  27.2971760 130.2322360  23.3400960  27.6659160
 129.4895950  22.1250970  27.1519700 136.6943970  27.3854030  18.6036890
 137.1339880  28.1278360  18.1892280 136.6330860  27.6280600  19.5275850
 142.1665730  13.7000770  12.9496690 141.8538390  13.7927600  13.8495760
 142.9278200  14.2781800  12.8994120 128.6847870  21.0660570  17.4074030
 128.5645470  21.7922660  16.7955300 128.3748760  20.2963480  16.9301940
 126.3233240  24.2375710  23.2142670 126.4013660  24.3724480  22.2698390
 126.9374920  23.5291600  23.4070790 127.5680870  25.9375900  19.6248850
 127.1608950  26.0790490  18.7702450 128.4593880  25.6536060  19.4220060
 139.0640280  27.8810710  14.5197900 138.3705440  27.8788000  13.8600180
 139.8063140  27.4570030  14.0892070 143.3767020  18.4372270  28.9270830
 142.7611290  18.9451940  28.3986290 143.0563440  17.5370600  28.8696770
 126.3792760  25.2789880  25.7537130 126.5423800  24.8095240  24.9356500
 126.8445210  24.7713440  26.4185970 131.1511530  14.4095640  20.7897700
 130.7079680  15.1905180  20.4582220 131.7096520  14.7325530  21.4968640
 135.4381340  17.2764160  26.3933020 134.9760710  17.4847180  27.2052960
 135.0359450  16.4623510  26.0903690 140.4385850  18.4973110  27.5229680
 139.5879440  18.1978860  27.8438750 140.2787640  18.7415120  26.6113500
 137.5335560  19.9974860  29.6228470 137.8588970  19.1638610  29.2830700
 138.3215890  20.5203380  29.7706800 134.2670350  14.0306340  15.6703530
 133.6424530  14.0266210  16.3956840 134.1800470  13.1637300  15.2739500
 133.1887430  14.9542970  22.6487300 133.4859760  15.8605800  22.5679320
 133.7372990  14.4661750  22.0346870 130.9425750  19.5329210  18.5178950
 130.7166670  19.3166380  19.4225570 130.1618280  19.9657670  18.1724920
 138.1723510  19.5392580  17.1169600 137.5732400  20.2628380  16.9333220
 138.7203120  19.4769360  16.3346050 133.3824960  20.4314790  29.1839220
 133.2868560  19.4909520  29.0339620 134.2256940  20.6529860  28.7887290
 136.7788380  18.1756120  19.1472880 137.1717950  18.4928320  18.3341570
 137.1405230  17.2968000  19.2617400 128.5135500  16.8428460  27.3373000
 128.1198890  17.6903670  27.5445780 127.8253900  16.2054830  27.5281640
 135.0880550  16.9263430  30.4069740 134.3978870  16.7335630  31.0415830
 135.8312850  17.2098070  30.9394040 125.8152550  14.7656920  21.3703080
 125.5265600  15.3359780  22.0828060 126.5598310  14.2861370  21.7334310
 126.0022780  18.7077040  12.5805800 125.9197450  19.6507800  12.7220790
 125.6505840  18.5651950  11.7018150 137.3643520  20.7661870  23.2423660
 136.6324640  21.2748680  23.5913760 136.9667860  19.9491850  22.9412440
 133.8020910  17.4416070  21.6476150 133.8056970  17.0006020  20.7980690
 134.6972030  17.7633400  21.7547970 129.6523290  17.3242560  20.6070360
 129.3123340  17.8017790  21.3637410 128.8900610  16.8707680  20.2471460
 133.8641060  18.4428150  14.6382910 133.9853880  18.4014630  15.5868730
 133.4789570  19.3052300  14.4829640 137.8269430  16.2195550  22.6546600
 137.8442170  16.6704200  23.4988450 137.5785010  15.3201190  22.8680040
 132.8762560  20.7529290  14.0366210 132.3079460  20.3047540  13.4102120
 133.5851560  21.1122070  13.5031360 141.2540180  13.6327730  28.4932980
 141.5785950  12.9017390  29.0190960 141.2896690  13.3141370  27.5913970
 127.9531740  24.6541310  27.9132940 127.5686530  24.0134980  28.5115900
 128.2643930  25.3577430  28.4827670 134.1028880  21.5017850  23.3941560
 134.4699010  21.0276420  24.1402900 133.9133940  22.3759420  23.7349900
 126.9669370  16.2461540  19.5235030 126.6816290  15.8817210  20.3613650
 126.9048230  15.5142000  18.9098170 131.8928250  20.5426490  25.7125770
 131.5885320  21.4218470  25.9376130 132.8474710  20.6026280  25.7483210
 130.4210040  24.7487480  16.3092620 129.6472300  24.2085100  16.1491340
 131.1504670  24.2294090  15.9710380 136.6407960  15.1390800  16.2448400
 135.8272570  14.6403970  16.1693710 136.4469910  15.9789050  15.8284750
 136.5616820  23.8161900  27.9888010 136.4954130  22.8957570  27.7345600
 135.9321960  23.9137340  28.7032650 139.3556350  19.5110450  14.5410560
 140.2435970  19.8227680  14.3661900 139.3261440  18.6382700  14.1491140
 130.4647440  24.4167860  19.9471430 130.9826110  23.6136120  19.8928320
 130.0131460  24.3547000  20.7888260 135.3516940  25.6834140  15.2198730
 135.6932640  26.4276370  14.7242050 134.5229650  25.9965260  15.5823560
 127.9491980  21.3829230  26.8597130 127.5906920  22.0483080  27.4470470
 127.6546540  20.5512780  27.2309750 131.1505100  21.8413470  29.7436680
 130.8505240  21.9870650  28.8464500 131.9216340  21.2818760  29.6510070
 136.4933550  26.6382470  27.7391810 136.5078090  25.7063430  27.5210720
 135.7858650  26.7242230  28.3781580 141.6270620  20.8222290  14.0090420
 141.5434340  21.2536510  13.1586860 142.3464810  21.2820640  14.4417240
 138.2344350  25.0049980  20.5844240 138.5868170  24.4078110  19.9245610
 137.3506680  24.6794210  20.7552490 134.3207630  25.7647670  17.9914650
 135.0078760  26.3116880  18.3722240 133.5340050  26.3088400  18.0264260
 126.4600030  21.3820490  13.4831730 127.3294880  21.6645290  13.7667650
 125.9690350  22.1956360  13.3680540 133.6234840  22.7693700  17.6040010
 134.0797620  23.5798950  17.8300200 133.2723050  22.4516840  18.4358500
 129.5246620  13.1131350  18.0762530 129.3961250  13.1049250  19.0247450
 128.7008640  13.4514440  17.7253540 137.1999530  26.2832390  23.5509760
 137.8421760  25.5825550  23.6641930 137.7248880  27.0630830  23.3706650
 141.0455250  26.5681010  13.2748900 140.8192830  25.8511450  13.8673540
 140.6551450  26.3193450  12.4370650 126.8271280  30.5947870  14.0493360
 127.1868920  31.1937210  13.3950630 126.6863620  31.1407760  14.8228390
 126.5240550  14.8722470  27.5369230 125.8099070  15.0719390  28.1421840
 126.9435590  14.0962040  27.9084030 140.6271500  24.4852950  14.9363060
 140.3393200  24.9465640  15.7240940 141.4223670  24.0250720  15.2047280
 134.8025730  27.1318620  29.9233880 134.4822600  26.4127860  30.4679570
 134.1284090  27.8073690  29.9969940 132.8439900  27.9779070  14.8667030
 132.8350000  28.7108760  14.2511540 131.9238260  27.7310650  14.9593990
 128.4446540  23.1993960  15.6113790 127.8374490  23.9392860  15.6209090
 128.9195890  23.2893320  14.7851990 138.0179330  17.3644780  25.2870680
 138.3860150  16.5439990  25.6150250 137.1577530  17.4246670  25.7026330
 141.3841360  16.3201720  16.0958240 140.7554520  16.4247390  15.3816470
 140.8893280  16.5398500  16.8852120 135.8299500  28.0407310  13.5292220
 135.9311480  27.8371300  12.5994200 134.9301240  27.7865590  13.7340000
 133.3525390  18.5987670  17.5116120 132.6441540  19.0674010  17.9529730
 133.6369870  17.9409680  18.1461310 134.9781320  20.0184370  25.5108650
 135.4766570  20.4930190  26.1760500 135.1204270  19.0947890  25.7178680
 137.3840820  15.3238330  18.9511910 137.2608600  15.3424460  18.0021420
 138.3325380  15.3717270  19.0710310 131.5560410  16.9072750  14.8866830
 132.4050940  17.3442900  14.8207020 131.1891680  17.2193010  15.7138890
 142.1848180  16.2352330  26.3537040 141.6821780  16.9757730  26.6930850
 143.0004840  16.6236330  26.0373830 140.4770190  21.4785510  19.7998400
 139.5360330  21.4935740  19.9746090 140.7914260  20.6921470  20.2458700
 130.4551830  23.1605110  13.3602360 131.2215100  23.0486470  13.9227790
 130.5326520  22.4643080  12.7079130 129.1498590  20.5930180  14.0435250
 129.2302180  19.6457690  14.1552650 130.0418340  20.9237060  14.1495910
 126.8358780  26.8099140  17.0211300 125.9098560  27.0520280  17.0116710
 127.3015210  27.6373400  16.8996050 133.0615610  29.9155880  12.9695360
 133.8544220  30.2044710  12.5177150 132.5419960  29.4848050  12.2907840
 137.7936210  26.0351510  30.2830780 137.1874370  26.0583110  29.5426530
 137.4890320  25.3034550  30.8198030 142.1145780  29.1426010  14.3932100
 141.8287290  28.7291150  13.5786280 141.9165330  30.0713720  14.2732620
 126.6769390  22.4145100  29.2791420 127.1808410  21.8352380  29.8507650
 125.9376810  22.6985330  29.8167790 133.5793010  25.1359290  12.8337710
 133.4743650  24.5211640  13.5599090 133.4117230  24.6125180  12.0500720
 133.7307330  23.8216090  28.8126940 132.9653000  24.3901090  28.7281610
 133.9123290  23.5292300  27.9195170 136.8195740  24.1979320  13.4379700
 136.2705840  24.6448620  14.0822440 137.4415000  23.6928570  13.9617370
 128.7092470  20.5574690  30.1741490 128.7497810  20.2588560  31.0826720
 129.5637970  20.9582300  30.0149010 132.4870860  23.1570240  15.3345000
 132.9087280  22.9910110  16.1776390 132.6121700  22.3470470  14.8400140
 130.6498280  19.1366790  28.1415980 130.1194740  18.6457740  27.5139320
 131.3186350  19.5650990  27.6073910 134.9998500  22.1807850  12.5822100
 135.5204160  21.4656870  12.2163250 135.6466900  22.8193720  12.8822610
 139.5476340  23.6036250  27.9057170 139.9617360  23.7581330  28.7547590
 138.6127340  23.7291470  28.0682950 140.0198510  20.9432410  29.9096320
 140.6019280  20.1884730  29.8216800 140.1960280  21.4739850  29.1327800
 131.1370580  16.1029160  28.2213270 131.0427450  15.4849910  27.4964140
 130.5567970  16.8295450  27.9943180 133.9032020  14.6602400  25.2540660
 133.4549320  14.6826660  24.4086210 133.2697220  14.2621420  25.8510960
 134.3091570  23.5556730  25.8753100 134.7279680  24.3989460  25.7029340
 133.3900200  23.6928770  25.6459880 136.6455470  21.2872910  27.2590940
 136.7651680  20.6914050  27.9985780 137.5049470  21.3242600  26.8392240
 138.9843370  21.8410100  25.8353450 138.4578590  22.3652720  25.2318590
 139.3274710  22.4737490  26.4663180 131.3829760  19.2303470  12.2803160
 131.1818820  18.3670830  12.6416500 131.2121810  19.1436830  11.3424760
 133.4124240  17.8294260  28.5166760 134.0023930  17.5210110  29.2044580
 132.5944480  17.3574010  28.6726660 138.2317670  17.4460070  28.7499780
 137.5433190  16.7841610  28.6849770 138.9523690  16.9998340  29.1948240
 138.8618070  14.0411700  14.8090040 139.1420360  13.1979600  15.1649460
 138.0883800  14.2734810  15.3228790 130.1812560  16.3304090  12.2681040
 130.4838460  16.3371520  11.3600190 130.9207150  15.9801950  12.7648700
 129.2042690  25.6346510  13.1010840 129.6417560  26.1776180  13.7568420
 129.6890420  24.8093460  13.1107180 131.0150410  26.7544550  18.2133070
 130.7145950  26.6309520  19.1136980 130.9087900  25.8953140  17.8048800
 143.7842330  26.5340950  12.9159750 142.9535290  26.6017600  13.3866980
 143.9614160  27.4245070  12.6126610 143.2398790  23.2788430  15.4193950
 144.0017700  23.8485080  15.5253640 143.2553160  22.7115630  16.1902260
 126.7403130  21.8026360  19.6501610 126.0851970  21.5338000  19.0061310
 127.5781080  21.6930840  19.2003590 143.2917960  23.5722800  12.5766470
 143.5666800  24.4801680  12.4485690 143.1028700  23.5085330  13.5128460
 139.6893570  16.5967650  13.8720100 140.1078450  16.4098630  13.0316760
 139.3829630  15.7446700  14.1823030 143.1883300  21.5091790  17.5695900
 142.8126900  20.7419720  17.1377190 142.4586420  21.8914490  18.0570830
 127.7779060  22.1878930  24.1904950 128.1452100  22.1006330  25.0700970
 127.2089880  21.4245480  24.0911810 142.5782920  20.6563310  27.2035420
 142.3469010  20.4276060  26.3033370 142.8387470  21.5762860  27.1580310
 127.3295060  19.0988020  28.0963370 126.4351110  19.0654780  28.4357080
 127.8692610  19.2974810  28.8614620 141.0170990  15.8819740  29.9815120
 141.8941170  15.8903140  30.3649120 141.0291830  15.1450580  29.3707470
 125.9541210  19.0125290  15.5926940 125.0505290  19.2755490  15.4178600
 126.4381830  19.2836460  14.8126900 142.4634260  19.7349280  20.8703140
 142.9871740  19.2411930  20.2393310 143.0493680  19.8699640  21.6150710
 142.6423980  19.8189150  24.3922690 141.6926690  19.7852690  24.5067680
 142.8236990  20.7289260  24.1572460 128.4968420  18.0690830  13.5021320
 129.2060120  17.6474050  13.0168600 127.7808360  18.1366060  12.8704670
 128.1442580  14.1230160  12.5423970 128.8670710  14.6639100  12.8605190
 128.4167100  13.8493580  11.6665510 141.9534230  18.9922630  16.8095550
 142.4493350  18.7593500  17.5944430 141.7550300  18.1534470  16.3933190
 127.8334770  13.3736350  22.4446590 128.4810960  12.8233730  22.0041750
 128.2536610  13.6279500  23.2662400 143.3821390  17.6283580  19.3433230
 143.2720670  17.4739620  20.2815500 144.1428980  17.1004520  19.1008640
 141.7287110  13.5677710  25.8016230 142.3659330  14.1811850  26.1675420
 141.8762000  13.6038370  24.8565460 144.2711660  15.4591500  12.5839370
 145.1960970  15.3272680  12.3757660 144.2487450  15.5384320  13.5375820
 144.3450150  16.2302160  15.2096080 143.5501650  16.1647280  15.7388990
 144.5493430  17.1652800  15.1981430 127.5866770  13.5292020  25.1871910
 127.2381590  13.9855840  25.9530090 127.2554470  12.6349150  25.2694340
 135.0991590  14.7203900  28.7091330 135.0380480  15.3125730  29.4586740
 136.0391970  14.6129860  28.5641590 137.7366150  14.3773960  28.3483620
 138.3506560  14.6953250  27.6864700 138.2815710  13.8922550  28.9679480
 128.2587410  13.0568220  28.4622680 128.8070400  12.8756270  27.6988790
 128.3242720  12.2662330  28.9978990 138.4774190  12.9406100  24.6752910
 137.6034030  13.2741210  24.4725840 138.3684940  12.4679280  25.5004780
 139.3846170  15.1476970  26.0594630 139.0559530  14.3328730  25.6796360
 140.3328470  15.1046780  25.9360320 136.2249010  13.8575940  23.6145820
 135.4420800  14.3321440  23.8942580 135.9311940  12.9530770  23.5059000
 140.7770080  14.5599040  21.6594910 141.2178170  14.5044140  20.8116510
 140.5077670  15.4757050  21.7305090 142.6408650  14.1914280  19.6703730
 142.5797050  13.2475500  19.5234750 143.4200680  14.2994370  20.2157190
 127.5689420  14.1623420  16.1359540 128.3268780  14.2752300  15.5623570
 127.1066590  14.9992620  16.0902970 134.1103230  16.2762690  19.1261850
 133.2977740  15.9019580  18.7857730 134.6144870  15.5207770  19.4283040
 138.6128210  12.9405140  20.3644920 139.2157580  13.5125350  20.8393440
 137.8721200  13.5044580  20.1418820 141.7562810  13.3426700  15.6385200
 141.9513440  14.2410150  15.9052630 140.9692680  13.1113780  16.1318150
 128.5524100  29.0239870  16.0777820 128.0271720  29.4047900  15.3739780
 128.4768680  29.6490640  16.7987530 129.9414570  14.6887470  14.6761510
 130.4707330  13.9017270  14.5469460 130.5742890  15.3678660  14.9097040
 132.1352410  14.4262610  17.7306900 131.5055150  13.7249920  17.8977030
 131.5957550  15.1866740  17.5140060 132.2607970  13.7046590  30.1659390
 131.9792240  14.2080190  29.4020210 132.6427670  12.9068340  29.8001520
 130.3131860  27.0886980  14.9573400 129.6840740  27.5572080  15.5059230
 130.4279690  26.2436200  15.3919590 138.8623430  13.1200170  30.7439860
 138.7488880  13.4394780  31.6391380 139.6793170  13.5212680  30.4477140
 135.8999620  22.9171660   2.9883870 135.1241720  22.4372100   3.2782440
 136.5512550  22.2377310   2.8140030 129.9165450  23.2291470   3.8659630
 129.0850330  22.9740180   4.2656140 130.5246430  23.3002240   4.6017550
 139.9207050  27.3231850   1.7683000 139.4588580  26.5519090   2.0970170
 140.7332600  27.3497920   2.2735450 129.8966710  27.2631560   4.0617650
 130.1994750  26.3729300   3.8827870 130.6410300  27.8201780   3.8339900
 126.2890410  20.7899010   3.5341720 126.8606520  20.0221210   3.5345360
 126.2891950  21.0887770   2.6248330 135.3408610  25.5928850   2.9954030
 135.2716890  24.6518790   2.8343160 136.1028470  25.6830260   3.5676600
 127.5315280  16.1983370   5.3210650 127.3518120  15.3009120   5.6013410
 127.1295360  16.7455240   5.9957600 136.3713780  18.3999230   3.2222960
 136.7478600  17.5271110   3.1096630 136.2733290  18.7357930   2.3313400
 128.1501950  18.6943870   3.9292990 128.8312060  18.9582240   4.5480390
 127.8350000  17.8544740   4.2631000 132.3426520  19.7411230   3.0165580
 132.8504740  20.2392200   3.6570600 132.8739760  18.9646430   2.8404940
 144.4437450  17.9116420   6.7194930 143.7389620  18.2998130   6.2010040
 144.7095370  18.6066710   7.3215860 130.6262620  14.3809790   7.2829000
 130.6281060  14.8982180   6.4774900 129.7966930  13.9039970   7.2598930
 131.8765470  24.0204970   5.4602500 131.5434850  24.6473890   6.1023570
 132.0532150  24.5466850   4.6804170 140.3899380  17.8350050   2.9278840
 139.6854950  18.1234940   3.5081950 140.7511540  18.6450160   2.5678400
 130.3077950  16.0919750   5.2899450 130.6494760  16.9361800   4.9953320
 129.3693760  16.2403490   5.4064790 131.0884570  25.9885770   7.2751680
 131.7058570  26.6636850   6.9936130 130.2277690  26.3973750   7.1839180
 142.0062160  27.4525180   5.1906320 141.3225680  28.1224290   5.1822990
 142.5456450  27.6505830   4.4251180 143.4586300  17.2804840   3.3188050
 142.5111210  17.3143820   3.4503480 143.7836290  18.0943790   3.7037410
 139.5420900  29.2969310   3.9051500 139.5548060  28.8931600   3.0373760
 138.9896120  30.0716600   3.8012930 138.9406340  24.1999150   5.2334110
 139.3575130  23.9859260   4.3987570 139.6646160  24.4571940   5.8042730
 142.8868440  22.5986370   5.3250350 142.0587070  22.6679460   4.8500480
 143.4818920  23.1840680   4.8566180 139.8510450  19.3855690   6.2705220
 139.4381630  20.2109400   6.5245210 139.1186400  18.8000730   6.0781580
 132.4524940  25.8583150   3.2963100 132.1553230  25.2528620   2.6170880
 133.4024760  25.8960460   3.1852460 130.6971860  18.9458800   4.9122930
 131.2486450  19.0554140   4.1376180 131.2115370  19.3196400   5.6278160
 140.5410550  29.4315020   6.9586200 140.0641110  30.2387210   6.7658810
 139.8572340  28.7793350   7.1112410 131.5443370  25.5964840   9.9470900
 130.6471900  25.8204810  10.1944300 131.5696240  25.7199780   8.9982300
 130.3714590  22.4678160   8.5228270 130.2322360  23.3400960   8.8915670
 129.4895950  22.1250970   8.3776210 132.1694940  28.4099860  10.7313420
 132.1410370  28.8142810   9.8641850 132.0059910  27.4810220  10.5685020
 144.1209760  29.1926960  12.0277590 144.5969480  29.6709850  12.7066670
 144.7416920  29.1244450  11.3023090 126.3233240  24.2375710   4.4399180
 126.4013660  24.3724480   3.4954900 126.9374920  23.5291600   4.6327300
 143.5243010  26.3839810   9.1877600 143.6506070  26.1451690   8.2694780
 143.5664390  25.5524350   9.6599680 137.3859750  30.0867810   7.7572410
 137.9004420  29.9975820   8.5594840 136.5428830  30.4327510   8.0500320
 143.3767020  18.4372270  10.1527340 142.7611290  18.9451940   9.6242800
 143.0563440  17.5370600  10.0953280 126.3792760  25.2789880   6.9793640
 126.5423800  24.8095240   6.1613010 126.8445210  24.7713440   7.6442480
 131.1511530  14.4095640   2.0154210 130.7079680  15.1905180   1.6838730
 131.7096520  14.7325530   2.7225150 135.4381340  17.2764160   7.6189530
 134.9760710  17.4847180   8.4309470 135.0359450  16.4623510   7.3160200
 140.4385850  18.4973110   8.7486190 139.5879440  18.1978860   9.0695260
 140.2787640  18.7415120   7.8370010 137.5335560  19.9974860  10.8484980
 137.8588970  19.1638610  10.5087210 138.3215890  20.5203380  10.9963310
 133.1887430  14.9542970   3.8743810 133.4859760  15.8605800   3.7935830
 133.7372990  14.4661750   3.2603380 133.3824960  20.4314790  10.4095730
 133.2868560  19.4909520  10.2596130 134.2256940  20.6529860  10.0143800
 128.5135500  16.8428460   8.5629510 128.1198890  17.6903670   8.7702290
 127.8253900  16.2054830   8.7538150 135.0880550  16.9263430  11.6326250
 134.3978870  16.7335630  12.2672340 135.8312850  17.2098070  12.1650550
 125.8152550  14.7656920   2.5959590 125.5265600  15.3359780   3.3084570
 126.5598310  14.2861370   2.9590820 137.3643520  20.7661870   4.4680170
 136.6324640  21.2748680   4.8170270 136.9667860  19.9491850   4.1668950
 133.8020910  17.4416070   2.8732660 133.8056970  17.0006020   2.0237200
 134.6972030  17.7633400   2.9804480 129.6523290  17.3242560   1.8326870
 129.3123340  17.8017790   2.5893920 128.8900610  16.8707680   1.4727970
 137.8269430  16.2195550   3.8803110 137.8442170  16.6704200   4.7244960
 137.5785010  15.3201190   4.0936550 141.2540180  13.6327730   9.7189490
 141.5785950  12.9017390  10.2447470 141.2896690  13.3141370   8.8170480
 127.9531740  24.6541310   9.1389450 127.5686530  24.0134980   9.7372410
 128.2643930  25.3577430   9.7084180 134.1028880  21.5017850   4.6198070
 134.4699010  21.0276420   5.3659410 133.9133940  22.3759420   4.9606410
 131.8928250  20.5426490   6.9382280 131.5885320  21.4218470   7.1632640
 132.8474710  20.6026280   6.9739720 141.1798020  23.7452840   3.3275520
 141.8997140  24.2408130   2.9371630 140.9779840  23.0670730   2.6829390
 136.5616820  23.8161900   9.2144520 136.4954130  22.8957570   8.9602110
 135.9321960  23.9137340   9.9289160 127.9491980  21.3829230   8.0853640
 127.5906920  22.0483080   8.6726980 127.6546540  20.5512780   8.4566260
 131.1505100  21.8413470  10.9693190 130.8505240  21.9870650  10.0721010
 131.9216340  21.2818760  10.8766580 136.4933550  26.6382470   8.9648320
 136.5078090  25.7063430   8.7467230 135.7858650  26.7242230   9.6038090
 142.7044760  23.2789810   8.3116900 141.9792950  23.8718590   8.1146290
 143.2320220  23.2713350   7.5130270 135.9267450  28.2800040   6.0588820
 136.5709670  28.4859420   6.7362240 136.2896890  27.5188440   5.6059670
 137.1999530  26.2832390   4.7766270 137.8421760  25.5825550   4.8898440
 137.7248880  27.0630830   4.5963160 138.9737150  27.0827290   7.9802330
 139.3093390  27.6693980   8.6580250 138.0537490  26.9520000   8.2100120
 126.5240550  14.8722470   8.7625740 125.8099070  15.0719390   9.3678350
 126.9435590  14.0962040   9.1340540 126.8113140  28.8602730   9.7492270
 126.9204260  27.9197470   9.6087660 126.1593700  29.1257480   9.1006000
 134.8025730  27.1318620  11.1490390 134.4822600  26.4127860  11.6936080
 134.1284090  27.8073690  11.2226450 138.0179330  17.3644780   6.5127190
 138.3860150  16.5439990   6.8406760 137.1577530  17.4246670   6.9282840
 134.9781320  20.0184370   6.7365160 135.4766570  20.4930190   7.4017010
 135.1204270  19.0947890   6.9435190 142.1848180  16.2352330   7.5793550
 141.6821780  16.9757730   7.9187360 143.0004840  16.6236330   7.2630340
 142.4795770  28.6494360   2.7009170 142.6043190  29.4725530   3.1732980
 143.3461330  28.4385090   2.3533320 129.9513300  30.7425570   2.3726300
 130.6875780  30.1941030   2.6434870 130.3354220  31.6081580   2.2332290
 128.9571580  29.9271640  11.5611880 129.7584310  30.2483690  11.9747280
 128.4423400  29.5667220  12.2831790 137.7936210  26.0351510  11.5087290
 137.1874370  26.0583110  10.7683040 137.4890320  25.3034550  12.0454540
 139.2236580  29.7631800  10.1196700 140.1758330  29.6789820  10.0696940
 139.0764800  30.4273510  10.7930490 126.6769390  22.4145100  10.5047930
 127.1808410  21.8352380  11.0764160 125.9376810  22.6985330  11.0424300
 133.7307330  23.8216090  10.0383450 132.9653000  24.3901090   9.9538120
 133.9123290  23.5292300   9.1451680 140.8730680  25.5521420  10.5958470
 141.6140150  25.8897180  10.0925930 140.1103360  25.7213480  10.0428240
 128.7092470  20.5574690  11.3998000 128.7497810  20.2588560  12.3083230
 129.5637970  20.9582300  11.2405520 130.6498280  19.1366790   9.3672490
 130.1194740  18.6457740   8.7395830 131.3186350  19.5650990   8.8330420
 139.5476340  23.6036250   9.1313680 139.9617360  23.7581330   9.9804100
 138.6127340  23.7291470   9.2939460 140.0198510  20.9432410  11.1352830
 140.6019280  20.1884730  11.0473310 140.1960280  21.4739850  10.3584310
 131.1370580  16.1029160   9.4469780 131.0427450  15.4849910   8.7220650
 130.5567970  16.8295450   9.2199690 133.9032020  14.6602400   6.4797170
 133.4549320  14.6826660   5.6342720 133.2697220  14.2621420   7.0767470
 134.3091570  23.5556730   7.1009610 134.7279680  24.3989460   6.9285850
 133.3900200  23.6928770   6.8716390 136.6455470  21.2872910   8.4847450
 136.7651680  20.6914050   9.2242290 137.5049470  21.3242600   8.0648750
 138.9843370  21.8410100   7.0609960 138.4578590  22.3652720   6.4575100
 139.3274710  22.4737490   7.6919690 132.1598990  29.8609740   8.2167340
 131.6220080  30.5855800   7.8976040 132.4132950  29.3840080   7.4264680
 133.4124240  17.8294260   9.7423270 134.0023930  17.5210110  10.4301090
 132.5944480  17.3574010   9.8983170 138.2317670  17.4460070   9.9756290
 137.5433190  16.7841610   9.9106280 138.9523690  16.9998340  10.4204750
 126.4188490  28.4235540   1.7787610 126.7491500  27.5556600   1.5466250
 126.8479490  28.6294060   2.6092570 126.9078700  29.2906130   4.5169240
 126.4709690  29.4706930   5.3493390 127.4756380  30.0480750   4.3750960
 142.5440880  28.7923130   8.8046550 141.9442870  28.8515690   8.0610470
 142.6734780  27.8528110   8.9343400 141.2292520  25.5175110   6.9022710
 140.4152360  25.9472270   7.1648500 141.6366720  26.1293520   6.2891760
 127.7779060  22.1878930   5.4161460 128.1452100  22.1006330   6.2957480
 127.2089880  21.4245480   5.3168320 142.5782920  20.6563310   8.4291930
 142.3469010  20.4276060   7.5289880 142.8387470  21.5762860   8.3836820
 127.3295060  19.0988020   9.3219880 126.4351110  19.0654780   9.6613590
 127.8692610  19.2974810  10.0871130 141.0170990  15.8819740  11.2071630
 141.8941170  15.8903140  11.5905630 141.0291830  15.1450580  10.5963980
 142.4634260  19.7349280   2.0959650 142.9871740  19.2411930   1.4649820
 143.0493680  19.8699640   2.8407220 142.6423980  19.8189150   5.6179200
 141.6926690  19.7852690   5.7324190 142.8236990  20.7289260   5.3828970
 127.8334770  13.3736350   3.6703100 128.4810960  12.8233730   3.2298260
 128.2536610  13.6279500   4.4918910 141.7287110  13.5677710   7.0272740
 142.3659330  14.1811850   7.3931930 141.8762000  13.6038370   6.0821970
 127.5866770  13.5292020   6.4128420 127.2381590  13.9855840   7.1786600
 127.2554470  12.6349150   6.4950850 129.1931140  26.7011620  10.5781610
 129.1500770  26.3304530  11.4596070 129.3242150  27.6389190  10.7183430
 132.8937170  28.2571210   6.1791330 132.6528530  28.5245770   5.2921850
 133.8339810  28.4276940   6.2342190 135.0991590  14.7203900   9.9347840
 135.0380480  15.3125730  10.6843250 136.0391970  14.6129860   9.7898100
 137.7366150  14.3773960   9.5740130 138.3506560  14.6953250   8.9121210
 138.2815710  13.8922550  10.1935990 144.1541330  30.2765590   6.9801970
 143.6599610  30.6734460   6.2629100 143.5454620  29.6514800   7.3739250
 128.2587410  13.0568220   9.6879190 128.8070400  12.8756270   8.9245300
 128.3242720  12.2662330  10.2235500 129.0319170  29.6473870   7.6979390
 128.4379490  29.5158570   8.4369430 129.0243010  28.8112010   7.2321490
 138.4774190  12.9406100   5.9009420 137.6034030  13.2741210   5.6982350
 138.3684940  12.4679280   6.7261290 139.3846170  15.1476970   7.2851140
 139.0559530  14.3328730   6.9052870 140.3328470  15.1046780   7.1616830
 141.8380780  30.9189010   4.2588710 141.3783750  31.6704820   3.8846730
 141.2093240  30.1995480   4.2003510 128.6631400  27.0132250   6.6487430
 127.9365460  26.3937540   6.5813380 128.7240550  27.4072860   5.7785510
 132.2676500  29.2277250   3.4336840 132.7841520  28.6164610   2.9085100
 132.9173880  29.7306030   3.9247850 135.0072000  30.1185740   4.2605820
 135.2949810  29.8640040   3.3838830 135.5195220  29.5663100   4.8511390
 136.2249010  13.8575940   4.8402330 135.4420800  14.3321440   5.1199090
 135.9311940  12.9530770   4.7315510 140.7770080  14.5599040   2.8851420
 141.2178170  14.5044140   2.0373020 140.5077670  15.4757050   2.9561600
 135.0744360  31.0401840  11.6274020 136.0011670  30.8046110  11.6709980
 135.0594790  31.8673840  11.1460050 132.2607970  13.7046590  11.3915900
 131.9792240  14.2080190  10.6276720 132.6427670  12.9068340  11.0258030
 138.8623430  13.1200170  11.9696370 138.7488880  13.4394780  12.8647890
 139.6793170  13.5212680  11.6733650 141.6421920  30.2671700  11.4515060
 142.4347240  29.7720930  11.2441020 141.9355070  30.9461840  12.0590670
 137.7681580   2.3649150  57.4305070 137.6875630   1.4503760  57.1596780
 137.3546000   2.8616220  56.7244780 135.8999620   4.1428170  59.3114340
 135.1241720   3.6628610  59.6012910 136.5512550   3.4633820  59.1370500
 139.9207050   8.5488360  58.0913470 139.4588580   7.7775600  58.4200640
 140.7332600   8.5754430  58.5965920 126.2890410   2.0155520  59.8572190
 126.8606520   1.2477720  59.8575830 126.2891950   2.3144280  58.9478800
 136.1470360  10.8346370  57.7117460 135.5281800  11.2903870  57.1411900
 137.0022140  10.9897830  57.3107160 135.3408610   6.8185360  59.3184500
 135.2716890   5.8775300  59.1573630 136.1028470   6.9086770  59.8907070
 137.0133710   5.7185610  55.1049370 136.3950980   6.1835060  54.5412090
 137.5256960   6.4113090  55.5218880 126.3816910   6.4042140  52.4789000
 126.0044890   6.8929240  51.7473900 126.6389980   7.0767420  53.1095530
 139.5420900  10.5225820  60.2281970 139.5548060  10.1188110  59.3604230
 138.9896120  11.2973110  60.1243400 140.8366320   7.2442040  55.3172140
 140.7262650   6.3016370  55.4421560 140.8334570   7.6057680  56.2034900
 136.3786600   2.8707360  54.6734630 135.4515880   2.8044740  54.9023100
 136.5311420   3.8087490  54.5589870 140.4083890   4.4327660  55.1769880
 139.7896310   4.0947210  54.5296180 140.3908340   3.7887420  55.8849070
 131.9843240   3.3972100  57.4554360 131.5800240   2.6849350  56.9600260
 132.0706360   3.0525340  58.3442400 132.4524940   7.0839660  59.6193570
 132.1553230   6.4785130  58.9401350 133.4024760   7.1216970  59.5082930
 138.5848590   3.6714470  52.1842630 139.0241870   2.8336900  52.0380450
 139.2977010   4.3043870  52.2706770 136.6943970   8.6110540  56.1523870
 137.1339880   9.3534870  55.7379260 136.6330860   8.8537110  57.0762830
 128.6847870   2.2917080  54.9561010 128.5645470   3.0179170  54.3442280
 128.3748760   1.5219990  54.4788920 127.5680870   7.1632410  57.1735830
 127.1608950   7.3047000  56.3189430 128.4593880   6.8792570  56.9707040
 139.3614150  11.5979660  53.5086880 139.2015290  11.3082600  54.4068710
 139.1960860  10.8219790  52.9732110 131.8402530  11.3778190  55.2858500
 131.6645010  10.4613730  55.0726300 130.9858270  11.7365480  55.5256300
 139.0640280   9.1067220  52.0684880 138.3705440   9.1044510  51.4087160
 139.8063140   8.6826540  51.6379050 138.6290210  10.7329930  56.1433370
 139.0847160   9.9519310  56.4571990 138.9682730  11.4436750  56.6874550
 132.8762560   1.9785800  51.5853190 132.3079460   1.5304050  50.9589100
 133.5851560   2.3378580  51.0518340 130.4210040   5.9743990  53.8579600
 129.6472300   5.4341610  53.6978320 131.1504670   5.4550600  53.5197360
 141.1798020   4.9709350  59.6505990 141.8997140   5.4664640  59.2602100
 140.9779840   4.2927240  59.0059860 130.4647440   5.6424370  57.4958410
 130.9826110   4.8392630  57.4415300 130.0131460   5.5803510  58.3375240
 135.3516940   6.9090650  52.7685710 135.6932640   7.6532880  52.2729030
 134.5229650   7.2221770  53.1310540 141.6270620   2.0478800  51.5577400
 141.5434340   2.4793020  50.7073840 142.3464810   2.5077150  51.9904220
 142.6557870   8.9021060  54.2859530 142.0134030   8.2476680  54.5603250
 142.2688530   9.3076150  53.5100200 138.2344350   6.2306490  58.1331220
 138.5868170   5.6334620  57.4732590 137.3506680   5.9050720  58.3039470
 134.3207630   6.9904180  55.5401630 135.0078760   7.5373390  55.9209220
 133.5340050   7.5344910  55.5751240 126.4600030   2.6077000  51.0318710
 127.3294880   2.8901800  51.3154630 125.9690350   3.4212870  50.9167520
 133.6234840   3.9950210  55.1526990 134.0797620   4.8055460  55.3787180
 133.2723050   3.6773350  55.9845480 141.0455250   7.7937520  50.8235880
 140.8192830   7.0767960  51.4160520 140.6551450   7.5449960  49.9857630
 126.8271280  11.8204380  51.5980340 127.1868920  12.4193720  50.9437610
 126.6863620  12.3664270  52.3715370 140.6271500   5.7109460  52.4850040
 140.3393200   6.1722150  53.2727920 141.4223670   5.2507230  52.7534260
 132.8439900   9.2035580  52.4154010 132.8350000   9.9365270  51.7998520
 131.9238260   8.9567160  52.5080970 128.4446540   4.4250470  53.1600770
 127.8374490   5.1649370  53.1696070 128.9195890   4.5149830  52.3338970
 135.8299500   9.2663820  51.0779200 135.9311480   9.0627810  50.1481180
 134.9301240   9.0122100  51.2826980 140.4770190   2.7042020  57.3485380
 139.5360330   2.7192250  57.5233070 140.7914260   1.9177980  57.7945680
 130.4551830   4.3861620  50.9089340 131.2215100   4.2742980  51.4714770
 130.5326520   3.6899590  50.2566110 142.4795770   9.8750870  59.0239640
 142.6043190  10.6982040  59.4963450 143.3461330   9.6641600  58.6763790
 129.9513300  11.9682080  58.6956770 130.6875780  11.4197540  58.9665340
 130.3354220  12.8338090  58.5562760 126.8358780   8.0355650  54.5698280
 125.9098560   8.2776790  54.5603690 127.3015210   8.8629910  54.4483030
 133.0615610  11.1412390  50.5182340 133.8544220  11.4301220  50.0664130
 132.5419960  10.7104560  49.8394820 142.1145780  10.3682520  51.9419080
 141.8287290   9.9547660  51.1273260 141.9165330  11.2970230  51.8219600
 133.5793010   6.3615800  50.3824690 133.4743650   5.7468150  51.1086070
 133.4117230   5.8381690  49.5987700 136.8195740   5.4235830  50.9866680
 136.2705840   5.8705130  51.6309420 137.4415000   4.9185080  51.5104350
 132.4870860   4.3826750  52.8831980 132.9087280   4.2166620  53.7263370
 132.6121700   3.5726980  52.3887120 134.9998500   3.4064360  50.1309080
 135.5204160   2.6913380  49.7650230 135.6466900   4.0450230  50.4309590
 135.5646530  11.4875970  52.4210820 136.4597320  11.8260940  52.4429580
 135.5964160  10.7655380  51.7935100 129.2042690   6.8603020  50.6497820
 129.6417560   7.4032690  51.3055400 129.6890420   6.0349970  50.6594160
 126.4188490   9.6492050  58.1018080 126.7491500   8.7813110  57.8696720
 126.8479490   9.8550570  58.9323040 131.0150410   7.9801060  55.7620050
 130.7145950   7.8566030  56.6623960 130.9087900   7.1209650  55.3535780
 143.7842330   7.7597460  50.4646730 142.9535290   7.8274110  50.9353960
 143.9614160   8.6501580  50.1613590 143.2398790   4.5044940  52.9680930
 144.0017700   5.0741590  53.0740620 143.2553160   3.9372140  53.7389240
 126.7403130   3.0282870  57.1988590 126.0851970   2.7594510  56.5548290
 127.5781080   2.9187350  56.7490570 144.2458760   5.3595040  57.8122860
 144.6167590   4.5762360  57.4058830 144.8860690   6.0484140  57.6340160
 143.2917960   4.7979310  50.1253450 143.5666800   5.7058190  49.9972670
 143.1028700   4.7341840  51.0615440 143.1883300   2.7348300  55.1182880
 142.8126900   1.9676230  54.6864170 142.4586420   3.1171000  55.6057810
 141.2868570  11.4950220  56.7521450 141.8827640  11.1734790  56.0755870
 141.5446720  11.0222040  57.5434720 132.2676500  10.4533760  59.7567310
 132.7841520   9.8421120  59.2315570 132.9173880  10.9562540  60.2478320
 126.9461400  11.5563150  56.1814660 126.7783440  10.9233830  56.8796550
 126.0795910  11.7622550  55.8308850 128.5524100  10.2496380  53.6264800
 128.0271720  10.6304410  52.9226760 128.4768680  10.8747150  54.3474510
 143.3089420  11.8083920  54.9478740 143.4841610  11.1221660  54.3039660
 142.6110990  12.3330970  54.5555410 131.1517070  12.1978760  52.5014050
 131.8835890  11.9138040  51.9537940 131.4110740  11.9592040  53.3913430
 130.3131860   8.3143490  52.5060380 129.6840740   8.7828590  53.0546210
 130.4279690   7.4692710  52.9406570 137.7681580   2.3649150  38.6561580
 137.6875630   1.4503760  38.3853290 137.3546000   2.8616220  37.9501290
 135.8999620   4.1428170  40.5370850 135.1241720   3.6628610  40.8269420
 136.5512550   3.4633820  40.3627010 129.9165450   4.4547980  41.4146610
 129.0850330   4.1996690  41.8143120 130.5246430   4.5258750  42.1504530
 139.9207050   8.5488360  39.3169980 139.4588580   7.7775600  39.6457150
 140.7332600   8.5754430  39.8222430 129.8966710   8.4888070  41.6104630
 130.1994750   7.5985810  41.4314850 130.6410300   9.0458290  41.3826880
 126.2890410   2.0155520  41.0828700 126.8606520   1.2477720  41.0832340
 126.2891950   2.3144280  40.1735310 136.1470360  10.8346370  38.9373970
 135.5281800  11.2903870  38.3668410 137.0022140  10.9897830  38.5363670
 135.3408610   6.8185360  40.5441010 135.2716890   5.8775300  40.3830140
 136.1028470   6.9086770  41.1163580 137.0133710   5.7185610  36.3305880
 136.3950980   6.1835060  35.7668600 137.5256960   6.4113090  36.7475390
 131.8765470   5.2461480  43.0089480 131.5434850   5.8730400  43.6510550
 132.0532150   5.7723360  42.2291150 131.0884570   7.2142280  44.8238660
 131.7058570   7.8893360  44.5423110 130.2277690   7.6230260  44.7326160
 126.3816910   6.4042140  33.7045510 126.0044890   6.8929240  32.9730410
 126.6389980   7.0767420  34.3352040 142.0062160   8.6781690  42.7393300
 141.3225680   9.3480800  42.7309970 142.5456450   8.8762340  41.9738160
 139.5420900  10.5225820  41.4538480 139.5548060  10.1188110  40.5860740
 138.9896120  11.2973110  41.3499910 140.8366320   7.2442040  36.5428650
 140.7262650   6.3016370  36.6678070 140.8334570   7.6057680  37.4291410
 138.9406340   5.4255660  42.7821090 139.3575130   5.2115770  41.9474550
 139.6646160   5.6828450  43.3529710 136.3786600   2.8707360  35.8991140
 135.4515880   2.8044740  36.1279610 136.5311420   3.8087490  35.7846380
 142.8868440   3.8242880  42.8737330 142.0587070   3.8935970  42.3987460
 143.4818920   4.4097190  42.4053160 140.4083890   4.4327660  36.4026390
 139.7896310   4.0947210  35.7552690 140.3908340   3.7887420  37.1105580
 131.9843240   3.3972100  38.6810870 131.5800240   2.6849350  38.1856770
 132.0706360   3.0525340  39.5698910 132.4524940   7.0839660  40.8450080
 132.1553230   6.4785130  40.1657860 133.4024760   7.1216970  40.7339440
 140.5410550  10.6571530  44.5073180 140.0641110  11.4643720  44.3145790
 139.8572340  10.0049860  44.6599390 131.5443370   6.8221350  47.4957880
 130.6471900   7.0461320  47.7431280 131.5696240   6.9456290  46.5469280
 138.5848590   3.6714470  33.4099140 139.0241870   2.8336900  33.2636960
 139.2977010   4.3043870  33.4963280 130.3714590   3.6934670  46.0715250
 130.2322360   4.5657470  46.4402650 129.4895950   3.3507480  45.9263190
 136.6943970   8.6110540  37.3780380 137.1339880   9.3534870  36.9635770
 136.6330860   8.8537110  38.3019340 132.1694940   9.6356370  48.2800400
 132.1410370  10.0399320  47.4128830 132.0059910   8.7066730  48.1172000
 128.6847870   2.2917080  36.1817520 128.5645470   3.0179170  35.5698790
 128.3748760   1.5219990  35.7045430 144.1209760  10.4183470  49.5764570
 144.5969480  10.8966360  50.2553650 144.7416920  10.3500960  48.8510070
 126.3233240   5.4632220  41.9886160 126.4013660   5.5980990  41.0441880
 126.9374920   4.7548110  42.1814280 127.5680870   7.1632410  38.3992340
 127.1608950   7.3047000  37.5445940 128.4593880   6.8792570  38.1963550
 143.5243010   7.6096320  46.7364580 143.6506070   7.3708200  45.8181760
 143.5664390   6.7780860  47.2086660 137.3859750  11.3124320  45.3059390
 137.9004420  11.2232330  46.1081820 136.5428830  11.6584020  45.5987300
 139.3614150  11.5979660  34.7343390 139.2015290  11.3082600  35.6325220
 139.1960860  10.8219790  34.1988620 131.8402530  11.3778190  36.5115010
 131.6645010  10.4613730  36.2982810 130.9858270  11.7365480  36.7512810
 139.0640280   9.1067220  33.2941390 138.3705440   9.1044510  32.6343670
 139.8063140   8.6826540  32.8635560 138.6290210  10.7329930  37.3689880
 139.0847160   9.9519310  37.6828500 138.9682730  11.4436750  37.9131060
 126.3792760   6.5046390  44.5280620 126.5423800   6.0351750  43.7099990
 126.8445210   5.9969950  45.1929460 132.8762560   1.9785800  32.8109700
 132.3079460   1.5304050  32.1845610 133.5851560   2.3378580  32.2774850
 127.9531740   5.8797820  46.6876430 127.5686530   5.2391490  47.2859390
 128.2643930   6.5833940  47.2571160 134.1028880   2.7274360  42.1685050
 134.4699010   2.2532930  42.9146390 133.9133940   3.6015930  42.5093390
 131.8928250   1.7683000  44.4869260 131.5885320   2.6474980  44.7119620
 132.8474710   1.8282790  44.5226700 130.4210040   5.9743990  35.0836110
 129.6472300   5.4341610  34.9234830 131.1504670   5.4550600  34.7453870
 141.1798020   4.9709350  40.8762500 141.8997140   5.4664640  40.4858610
 140.9779840   4.2927240  40.2316370 136.5616820   5.0418410  46.7631500
 136.4954130   4.1214080  46.5089090 135.9321960   5.1393850  47.4776140
 130.4647440   5.6424370  38.7214920 130.9826110   4.8392630  38.6671810
 130.0131460   5.5803510  39.5631750 135.3516940   6.9090650  33.9942220
 135.6932640   7.6532880  33.4985540 134.5229650   7.2221770  34.3567050
 127.9491980   2.6085740  45.6340620 127.5906920   3.2739590  46.2213960
 127.6546540   1.7769290  46.0053240 131.1505100   3.0669980  48.5180170
 130.8505240   3.2127160  47.6207990 131.9216340   2.5075270  48.4253560
 136.4933550   7.8638980  46.5135300 136.5078090   6.9319940  46.2954210
 135.7858650   7.9498740  47.1525070 141.6270620   2.0478800  32.7833910
 141.5434340   2.4793020  31.9330350 142.3464810   2.5077150  33.2160730
 142.7044760   4.5046320  45.8603880 141.9792950   5.0975100  45.6633270
 143.2320220   4.4969860  45.0617250 142.6557870   8.9021060  35.5116040
 142.0134030   8.2476680  35.7859760 142.2688530   9.3076150  34.7356710
 138.2344350   6.2306490  39.3587730 138.5868170   5.6334620  38.6989100
 137.3506680   5.9050720  39.5295980 134.3207630   6.9904180  36.7658140
 135.0078760   7.5373390  37.1465730 133.5340050   7.5344910  36.8007750
 126.4600030   2.6077000  32.2575220 127.3294880   2.8901800  32.5411140
 125.9690350   3.4212870  32.1424030 133.6234840   3.9950210  36.3783500
 134.0797620   4.8055460  36.6043690 133.2723050   3.6773350  37.2101990
 135.9267450   9.5056550  43.6075800 136.5709670   9.7115930  44.2849220
 136.2896890   8.7444950  43.1546650 137.1999530   7.5088900  42.3253250
 137.8421760   6.8082060  42.4385420 137.7248880   8.2887340  42.1450140
 141.0455250   7.7937520  32.0492390 140.8192830   7.0767960  32.6417030
 140.6551450   7.5449960  31.2114140 138.9737150   8.3083800  45.5289310
 139.3093390   8.8950490  46.2067230 138.0537490   8.1776510  45.7587100
 126.8271280  11.8204380  32.8236850 127.1868920  12.4193720  32.1694120
 126.6863620  12.3664270  33.5971880 140.6271500   5.7109460  33.7106550
 140.3393200   6.1722150  34.4984430 141.4223670   5.2507230  33.9790770
 126.8113140  10.0859240  47.2979250 126.9204260   9.1453980  47.1574640
 126.1593700  10.3513990  46.6492980 134.8025730   8.3575130  48.6977370
 134.4822600   7.6384370  49.2423060 134.1284090   9.0330200  48.7713430
 132.8439900   9.2035580  33.6410520 132.8350000   9.9365270  33.0255030
 131.9238260   8.9567160  33.7337480 128.4446540   4.4250470  34.3857280
 127.8374490   5.1649370  34.3952580 128.9195890   4.5149830  33.5595480
 135.8299500   9.2663820  32.3035710 135.9311480   9.0627810  31.3737690
 134.9301240   9.0122100  32.5083490 134.4717610  11.7850140  36.9983380
 134.7259110  11.7471530  36.0762750 133.5230090  11.6583470  36.9911630
 140.4770190   2.7042020  38.5741890 139.5360330   2.7192250  38.7489580
 140.7914260   1.9177980  39.0202190 130.4551830   4.3861620  32.1345850
 131.2215100   4.2742980  32.6971280 130.5326520   3.6899590  31.4822620
 142.4795770   9.8750870  40.2496150 142.6043190  10.6982040  40.7219960
 143.3461330   9.6641600  39.9020300 129.9513300  11.9682080  39.9213280
 130.6875780  11.4197540  40.1921850 130.3354220  12.8338090  39.7819270
 126.8358780   8.0355650  35.7954790 125.9098560   8.2776790  35.7860200
 127.3015210   8.8629910  35.6739540 128.9571580  11.1528150  49.1098860
 129.7584310  11.4740200  49.5234260 128.4423400  10.7923730  49.8318770
 133.0615610  11.1412390  31.7438850 133.8544220  11.4301220  31.2920640
 132.5419960  10.7104560  31.0651330 137.7936210   7.2608020  49.0574270
 137.1874370   7.2839620  48.3170020 137.4890320   6.5291060  49.5941520
 139.2236580  10.9888310  47.6683680 140.1758330  10.9046330  47.6183920
 139.0764800  11.6530020  48.3417470 142.1145780  10.3682520  33.1675590
 141.8287290   9.9547660  32.3529770 141.9165330  11.2970230  33.0476110
 126.6769390   3.6401610  48.0534910 127.1808410   3.0608890  48.6251140
 125.9376810   3.9241840  48.5911280 133.5793010   6.3615800  31.6081200
 133.4743650   5.7468150  32.3342580 133.4117230   5.8381690  30.8244210
 133.7307330   5.0472600  47.5870430 132.9653000   5.6157600  47.5025100
 133.9123290   4.7548810  46.6938660 136.8195740   5.4235830  32.2123190
 136.2705840   5.8705130  32.8565930 137.4415000   4.9185080  32.7360860
 140.8730680   6.7777930  48.1445450 141.6140150   7.1153690  47.6412910
 140.1103360   6.9469990  47.5915220 128.7092470   1.7831200  48.9484980
 128.7497810   1.4845070  49.8570210 129.5637970   2.1838810  48.7892500
 132.4870860   4.3826750  34.1088490 132.9087280   4.2166620  34.9519880
 132.6121700   3.5726980  33.6143630 134.9998500   3.4064360  31.3565590
 135.5204160   2.6913380  30.9906740 135.6466900   4.0450230  31.6566100
 139.5476340   4.8292760  46.6800660 139.9617360   4.9837840  47.5291080
 138.6127340   4.9547980  46.8426440 140.0198510   2.1688920  48.6839810
 140.6019280   1.4141240  48.5960290 140.1960280   2.6996360  47.9071290
 134.3091570   4.7813240  44.6496590 134.7279680   5.6245970  44.4772830
 133.3900200   4.9185280  44.4203370 136.6455470   2.5129420  46.0334430
 136.7651680   1.9170560  46.7729270 137.5049470   2.5499110  45.6135730
 138.9843370   3.0666610  44.6096940 138.4578590   3.5909230  44.0062080
 139.3274710   3.6994000  45.2406670 132.1598990  11.0866250  45.7654320
 131.6220080  11.8112310  45.4463020 132.4132950  10.6096590  44.9751660
 135.0161200  12.3217460  46.0240970 134.9419900  13.2252600  46.3313340
 134.1140040  12.0029360  45.9963040 135.5646530  11.4875970  33.6467330
 136.4597320  11.8260940  33.6686090 135.5964160  10.7655380  33.0191610
 129.2042690   6.8603020  31.8754330 129.6417560   7.4032690  32.5311910
 129.6890420   6.0349970  31.8850670 126.4188490   9.6492050  39.3274590
 126.7491500   8.7813110  39.0953230 126.8479490   9.8550570  40.1579550
 131.0150410   7.9801060  36.9876560 130.7145950   7.8566030  37.8880470
 130.9087900   7.1209650  36.5792290 126.9078700  10.5162640  42.0656220
 126.4709690  10.6963440  42.8980370 127.4756380  11.2737260  41.9237940
 142.5440880  10.0179640  46.3533530 141.9442870  10.0772200  45.6097450
 142.6734780   9.0784620  46.4830380 143.7842330   7.7597460  31.6903240
 142.9535290   7.8274110  32.1610470 143.9614160   8.6501580  31.3870100
 143.2398790   4.5044940  34.1937440 144.0017700   5.0741590  34.2997130
 143.2553160   3.9372140  34.9645750 126.7403130   3.0282870  38.4245100
 126.0851970   2.7594510  37.7804800 127.5781080   2.9187350  37.9747080
 144.2458760   5.3595040  39.0379370 144.6167590   4.5762360  38.6315340
 144.8860690   6.0484140  38.8596670 141.2292520   6.7431620  44.4509690
 140.4152360   7.1728780  44.7135480 141.6366720   7.3550030  43.8378740
 143.2917960   4.7979310  31.3509960 143.5666800   5.7058190  31.2229180
 143.1028700   4.7341840  32.2871950 143.1883300   2.7348300  36.3439390
 142.8126900   1.9676230  35.9120680 142.4586420   3.1171000  36.8314320
 127.7779060   3.4135440  42.9648440 128.1452100   3.3262840  43.8444460
 127.2089880   2.6501990  42.8655300 142.5782920   1.8819820  45.9778910
 142.3469010   1.6532570  45.0776860 142.8387470   2.8019370  45.9323800
 141.2868570  11.4950220  37.9777960 141.8827640  11.1734790  37.3012380
 141.5446720  11.0222040  38.7691230 129.1931140   7.9268130  48.1268590
 129.1500770   7.5561040  49.0083050 129.3242150   8.8645700  48.2670410
 132.8937170   9.4827720  43.7278310 132.6528530   9.7502280  42.8408830
 133.8339810   9.6533450  43.7829170 144.1541330  11.5022100  44.5288950
 143.6599610  11.8990970  43.8116080 143.5454620  10.8771310  44.9226230
 129.0319170  10.8730380  45.2466370 128.4379490  10.7415080  45.9856410
 129.0243010  10.0368520  44.7808470 141.8380780  12.1445520  41.8075690
 141.3783750  12.8961330  41.4333710 141.2093240  11.4251990  41.7490490
 128.6631400   8.2388760  44.1974410 127.9365460   7.6194050  44.1300360
 128.7240550   8.6329370  43.3272490 132.2676500  10.4533760  40.9823820
 132.7841520   9.8421120  40.4572080 132.9173880  10.9562540  41.4734830
 135.0072000  11.3442250  41.8092800 135.2949810  11.0896550  40.9325810
 135.5195220  10.7919610  42.3998370 126.9461400  11.5563150  37.4071170
 126.7783440  10.9233830  38.1053060 126.0795910  11.7622550  37.0565360
 128.5524100  10.2496380  34.8521310 128.0271720  10.6304410  34.1483270
 128.4768680  10.8747150  35.5731020 135.0744360  12.2658350  49.1761000
 136.0011670  12.0302620  49.2196960 135.0594790  13.0930350  48.6947030
 143.3089420  11.8083920  36.1735250 143.4841610  11.1221660  35.5296170
 142.6110990  12.3330970  35.7811920 131.1517070  12.1978760  33.7270560
 131.8835890  11.9138040  33.1794450 131.4110740  11.9592040  34.6169940
 130.3131860   8.3143490  33.7316890 129.6840740   8.7828590  34.2802720
 130.4279690   7.4692710  34.1663080 141.6421920  11.4928210  49.0002040
 142.4347240  10.9977440  48.7928000 141.9355070  12.1718350  49.6077650
 137.7681580   2.3649150  19.8818090 137.6875630   1.4503760  19.6109800
 137.3546000   2.8616220  19.1757800 135.8999620   4.1428170  21.7627360
 135.1241720   3.6628610  22.0525930 136.5512550   3.4633820  21.5883520
 129.9165450   4.4547980  22.6403120 129.0850330   4.1996690  23.0399630
 130.5246430   4.5258750  23.3761040 139.9207050   8.5488360  20.5426490
 139.4588580   7.7775600  20.8713660 140.7332600   8.5754430  21.0478940
 129.8966710   8.4888070  22.8361140 130.1994750   7.5985810  22.6571360
 130.6410300   9.0458290  22.6083390 126.2890410   2.0155520  22.3085210
 126.8606520   1.2477720  22.3088850 126.2891950   2.3144280  21.3991820
 136.1470360  10.8346370  20.1630480 135.5281800  11.2903870  19.5924920
 137.0022140  10.9897830  19.7620180 135.3408610   6.8185360  21.7697520
 135.2716890   5.8775300  21.6086650 136.1028470   6.9086770  22.3420090
 137.0133710   5.7185610  17.5562390 136.3950980   6.1835060  16.9925110
 137.5256960   6.4113090  17.9731900 131.8765470   5.2461480  24.2345990
 131.5434850   5.8730400  24.8767060 132.0532150   5.7723360  23.4547660
 131.0884570   7.2142280  26.0495170 131.7058570   7.8893360  25.7679620
 130.2277690   7.6230260  25.9582670 126.3816910   6.4042140  14.9302020
 126.0044890   6.8929240  14.1986920 126.6389980   7.0767420  15.5608550
 142.0062160   8.6781690  23.9649810 141.3225680   9.3480800  23.9566480
 142.5456450   8.8762340  23.1994670 139.5420900  10.5225820  22.6794990
 139.5548060  10.1188110  21.8117250 138.9896120  11.2973110  22.5756420
 140.8366320   7.2442040  17.7685160 140.7262650   6.3016370  17.8934580
 140.8334570   7.6057680  18.6547920 138.9406340   5.4255660  24.0077600
 139.3575130   5.2115770  23.1731060 139.6646160   5.6828450  24.5786220
 136.3786600   2.8707360  17.1247650 135.4515880   2.8044740  17.3536120
 136.5311420   3.8087490  17.0102890 142.8868440   3.8242880  24.0993840
 142.0587070   3.8935970  23.6243970 143.4818920   4.4097190  23.6309670
 140.4083890   4.4327660  17.6282900 139.7896310   4.0947210  16.9809200
 140.3908340   3.7887420  18.3362090 131.9843240   3.3972100  19.9067380
 131.5800240   2.6849350  19.4113280 132.0706360   3.0525340  20.7955420
 132.4524940   7.0839660  22.0706590 132.1553230   6.4785130  21.3914370
 133.4024760   7.1216970  21.9595950 140.5410550  10.6571530  25.7329690
 140.0641110  11.4643720  25.5402300 139.8572340  10.0049860  25.8855900
 131.5443370   6.8221350  28.7214390 130.6471900   7.0461320  28.9687790
 131.5696240   6.9456290  27.7725790 138.5848590   3.6714470  14.6355650
 139.0241870   2.8336900  14.4893470 139.2977010   4.3043870  14.7219790
 130.3714590   3.6934670  27.2971760 130.2322360   4.5657470  27.6659160
 129.4895950   3.3507480  27.1519700 136.6943970   8.6110540  18.6036890
 137.1339880   9.3534870  18.1892280 136.6330860   8.8537110  19.5275850
 132.1694940   9.6356370  29.5056910 132.1410370  10.0399320  28.6385340
 132.0059910   8.7066730  29.3428510 128.6847870   2.2917080  17.4074030
 128.5645470   3.0179170  16.7955300 128.3748760   1.5219990  16.9301940
 144.1209760  10.4183470  30.8021080 144.5969480  10.8966360  31.4810160
 144.7416920  10.3500960  30.0766580 126.3233240   5.4632220  23.2142670
 126.4013660   5.5980990  22.2698390 126.9374920   4.7548110  23.4070790
 127.5680870   7.1632410  19.6248850 127.1608950   7.3047000  18.7702450
 128.4593880   6.8792570  19.4220060 143.5243010   7.6096320  27.9621090
 143.6506070   7.3708200  27.0438270 143.5664390   6.7780860  28.4343170
 137.3859750  11.3124320  26.5315900 137.9004420  11.2232330  27.3338330
 136.5428830  11.6584020  26.8243810 139.3614150  11.5979660  15.9599900
 139.2015290  11.3082600  16.8581730 139.1960860  10.8219790  15.4245130
 131.8402530  11.3778190  17.7371520 131.6645010  10.4613730  17.5239320
 130.9858270  11.7365480  17.9769320 139.0640280   9.1067220  14.5197900
 138.3705440   9.1044510  13.8600180 139.8063140   8.6826540  14.0892070
 138.6290210  10.7329930  18.5946390 139.0847160   9.9519310  18.9085010
 138.9682730  11.4436750  19.1387570 126.3792760   6.5046390  25.7537130
 126.5423800   6.0351750  24.9356500 126.8445210   5.9969950  26.4185970
 132.8762560   1.9785800  14.0366210 132.3079460   1.5304050  13.4102120
 133.5851560   2.3378580  13.5031360 127.9531740   5.8797820  27.9132940
 127.5686530   5.2391490  28.5115900 128.2643930   6.5833940  28.4827670
 134.1028880   2.7274360  23.3941560 134.4699010   2.2532930  24.1402900
 133.9133940   3.6015930  23.7349900 131.8928250   1.7683000  25.7125770
 131.5885320   2.6474980  25.9376130 132.8474710   1.8282790  25.7483210
 130.4210040   5.9743990  16.3092620 129.6472300   5.4341610  16.1491340
 131.1504670   5.4550600  15.9710380 141.1798020   4.9709350  22.1019010
 141.8997140   5.4664640  21.7115120 140.9779840   4.2927240  21.4572880
 136.5616820   5.0418410  27.9888010 136.4954130   4.1214080  27.7345600
 135.9321960   5.1393850  28.7032650 130.4647440   5.6424370  19.9471430
 130.9826110   4.8392630  19.8928320 130.0131460   5.5803510  20.7888260
 135.3516940   6.9090650  15.2198730 135.6932640   7.6532880  14.7242050
 134.5229650   7.2221770  15.5823560 127.9491980   2.6085740  26.8597130
 127.5906920   3.2739590  27.4470470 127.6546540   1.7769290  27.2309750
 131.1505100   3.0669980  29.7436680 130.8505240   3.2127160  28.8464500
 131.9216340   2.5075270  29.6510070 136.4933550   7.8638980  27.7391810
 136.5078090   6.9319940  27.5210720 135.7858650   7.9498740  28.3781580
 141.6270620   2.0478800  14.0090420 141.5434340   2.4793020  13.1586860
 142.3464810   2.5077150  14.4417240 142.7044760   4.5046320  27.0860390
 141.9792950   5.0975100  26.8889780 143.2320220   4.4969860  26.2873760
 142.6557870   8.9021060  16.7372550 142.0134030   8.2476680  17.0116270
 142.2688530   9.3076150  15.9613220 138.2344350   6.2306490  20.5844240
 138.5868170   5.6334620  19.9245610 137.3506680   5.9050720  20.7552490
 134.3207630   6.9904180  17.9914650 135.0078760   7.5373390  18.3722240
 133.5340050   7.5344910  18.0264260 126.4600030   2.6077000  13.4831730
 127.3294880   2.8901800  13.7667650 125.9690350   3.4212870  13.3680540
 133.6234840   3.9950210  17.6040010 134.0797620   4.8055460  17.8300200
 133.2723050   3.6773350  18.4358500 135.9267450   9.5056550  24.8332310
 136.5709670   9.7115930  25.5105730 136.2896890   8.7444950  24.3803160
 137.1999530   7.5088900  23.5509760 137.8421760   6.8082060  23.6641930
 137.7248880   8.2887340  23.3706650 141.0455250   7.7937520  13.2748900
 140.8192830   7.0767960  13.8673540 140.6551450   7.5449960  12.4370650
 138.9737150   8.3083800  26.7545820 139.3093390   8.8950490  27.4323740
 138.0537490   8.1776510  26.9843610 126.8271280  11.8204380  14.0493360
 127.1868920  12.4193720  13.3950630 126.6863620  12.3664270  14.8228390
 140.6271500   5.7109460  14.9363060 140.3393200   6.1722150  15.7240940
 141.4223670   5.2507230  15.2047280 126.8113140  10.0859240  28.5235760
 126.9204260   9.1453980  28.3831150 126.1593700  10.3513990  27.8749490
 134.8025730   8.3575130  29.9233880 134.4822600   7.6384370  30.4679570
 134.1284090   9.0330200  29.9969940 132.8439900   9.2035580  14.8667030
 132.8350000   9.9365270  14.2511540 131.9238260   8.9567160  14.9593990
 128.4446540   4.4250470  15.6113790 127.8374490   5.1649370  15.6209090
 128.9195890   4.5149830  14.7851990 135.8299500   9.2663820  13.5292220
 135.9311480   9.0627810  12.5994200 134.9301240   9.0122100  13.7340000
 134.4717610  11.7850140  18.2239890 134.7259110  11.7471530  17.3019260
 133.5230090  11.6583470  18.2168140 140.4770190   2.7042020  19.7998400
 139.5360330   2.7192250  19.9746090 140.7914260   1.9177980  20.2458700
 130.4551830   4.3861620  13.3602360 131.2215100   4.2742980  13.9227790
 130.5326520   3.6899590  12.7079130 142.4795770   9.8750870  21.4752660
 142.6043190  10.6982040  21.9476470 143.3461330   9.6641600  21.1276810
 129.9513300  11.9682080  21.1469790 130.6875780  11.4197540  21.4178360
 130.3354220  12.8338090  21.0075780 126.8358780   8.0355650  17.0211300
 125.9098560   8.2776790  17.0116710 127.3015210   8.8629910  16.8996050
 128.9571580  11.1528150  30.3355370 129.7584310  11.4740200  30.7490770
 128.4423400  10.7923730  31.0575280 133.0615610  11.1412390  12.9695360
 133.8544220  11.4301220  12.5177150 132.5419960  10.7104560  12.2907840
 137.7936210   7.2608020  30.2830780 137.1874370   7.2839620  29.5426530
 137.4890320   6.5291060  30.8198030 139.2236580  10.9888310  28.8940190
 140.1758330  10.9046330  28.8440430 139.0764800  11.6530020  29.5673980
 142.1145780  10.3682520  14.3932100 141.8287290   9.9547660  13.5786280
 141.9165330  11.2970230  14.2732620 126.6769390   3.6401610  29.2791420
 127.1808410   3.0608890  29.8507650 125.9376810   3.9241840  29.8167790
 133.5793010   6.3615800  12.8337710 133.4743650   5.7468150  13.5599090
 133.4117230   5.8381690  12.0500720 133.7307330   5.0472600  28.8126940
 132.9653000   5.6157600  28.7281610 133.9123290   4.7548810  27.9195170
 136.8195740   5.4235830  13.4379700 136.2705840   5.8705130  14.0822440
 137.4415000   4.9185080  13.9617370 140.8730680   6.7777930  29.3701960
 141.6140150   7.1153690  28.8669420 140.1103360   6.9469990  28.8171730
 128.7092470   1.7831200  30.1741490 128.7497810   1.4845070  31.0826720
 129.5637970   2.1838810  30.0149010 132.4870860   4.3826750  15.3345000
 132.9087280   4.2166620  16.1776390 132.6121700   3.5726980  14.8400140
 134.9998500   3.4064360  12.5822100 135.5204160   2.6913380  12.2163250
 135.6466900   4.0450230  12.8822610 139.5476340   4.8292760  27.9057170
 139.9617360   4.9837840  28.7547590 138.6127340   4.9547980  28.0682950
 140.0198510   2.1688920  29.9096320 140.6019280   1.4141240  29.8216800
 140.1960280   2.6996360  29.1327800 134.3091570   4.7813240  25.8753100
 134.7279680   5.6245970  25.7029340 133.3900200   4.9185280  25.6459880
 136.6455470   2.5129420  27.2590940 136.7651680   1.9170560  27.9985780
 137.5049470   2.5499110  26.8392240 138.9843370   3.0666610  25.8353450
 138.4578590   3.5909230  25.2318590 139.3274710   3.6994000  26.4663180
 132.1598990  11.0866250  26.9910830 131.6220080  11.8112310  26.6719530
 132.4132950  10.6096590  26.2008170 135.0161200  12.3217460  27.2497480
 134.9419900  13.2252600  27.5569850 134.1140040  12.0029360  27.2219550
 135.5646530  11.4875970  14.8723840 136.4597320  11.8260940  14.8942600
 135.5964160  10.7655380  14.2448120 129.2042690   6.8603020  13.1010840
 129.6417560   7.4032690  13.7568420 129.6890420   6.0349970  13.1107180
 126.4188490   9.6492050  20.5531100 126.7491500   8.7813110  20.3209740
 126.8479490   9.8550570  21.3836060 131.0150410   7.9801060  18.2133070
 130.7145950   7.8566030  19.1136980 130.9087900   7.1209650  17.8048800
 126.9078700  10.5162640  23.2912730 126.4709690  10.6963440  24.1236880
 127.4756380  11.2737260  23.1494450 142.5440880  10.0179640  27.5790040
 141.9442870  10.0772200  26.8353960 142.6734780   9.0784620  27.7086890
 143.7842330   7.7597460  12.9159750 142.9535290   7.8274110  13.3866980
 143.9614160   8.6501580  12.6126610 143.2398790   4.5044940  15.4193950
 144.0017700   5.0741590  15.5253640 143.2553160   3.9372140  16.1902260
 126.7403130   3.0282870  19.6501610 126.0851970   2.7594510  19.0061310
 127.5781080   2.9187350  19.2003590 144.2458760   5.3595040  20.2635880
 144.6167590   4.5762360  19.8571850 144.8860690   6.0484140  20.0853180
 141.2292520   6.7431620  25.6766200 140.4152360   7.1728780  25.9391990
 141.6366720   7.3550030  25.0635250 143.2917960   4.7979310  12.5766470
 143.5666800   5.7058190  12.4485690 143.1028700   4.7341840  13.5128460
 143.1883300   2.7348300  17.5695900 142.8126900   1.9676230  17.1377190
 142.4586420   3.1171000  18.0570830 127.7779060   3.4135440  24.1904950
 128.1452100   3.3262840  25.0700970 127.2089880   2.6501990  24.0911810
 141.2868570  11.4950220  19.2034470 141.8827640  11.1734790  18.5268890
 141.5446720  11.0222040  19.9947740 129.1931140   7.9268130  29.3525100
 129.1500770   7.5561040  30.2339560 129.3242150   8.8645700  29.4926920
 132.8937170   9.4827720  24.9534820 132.6528530   9.7502280  24.0665340
 133.8339810   9.6533450  25.0085680 144.1541330  11.5022100  25.7545460
 143.6599610  11.8990970  25.0372590 143.5454620  10.8771310  26.1482740
 129.0319170  10.8730380  26.4722880 128.4379490  10.7415080  27.2112920
 129.0243010  10.0368520  26.0064980 141.8380780  12.1445520  23.0332200
 141.3783750  12.8961330  22.6590220 141.2093240  11.4251990  22.9747000
 128.6631400   8.2388760  25.4230920 127.9365460   7.6194050  25.3556870
 128.7240550   8.6329370  24.5529000 132.2676500  10.4533760  22.2080330
 132.7841520   9.8421120  21.6828590 132.9173880  10.9562540  22.6991340
 135.0072000  11.3442250  23.0349310 135.2949810  11.0896550  22.1582320
 135.5195220  10.7919610  23.6254880 126.9461400  11.5563150  18.6327680
 126.7783440  10.9233830  19.3309570 126.0795910  11.7622550  18.2821870
 128.5524100  10.2496380  16.0777820 128.0271720  10.6304410  15.3739780
 128.4768680  10.8747150  16.7987530 135.0744360  12.2658350  30.4017510
 136.0011670  12.0302620  30.4453470 135.0594790  13.0930350  29.9203540
 143.3089420  11.8083920  17.3991760 143.4841610  11.1221660  16.7552680
 142.6110990  12.3330970  17.0068430 131.1517070  12.1978760  14.9527070
 131.8835890  11.9138040  14.4050960 131.4110740  11.9592040  15.8426450
 130.3131860   8.3143490  14.9573400 129.6840740   8.7828590  15.5059230
 130.4279690   7.4692710  15.3919590 141.6421920  11.4928210  30.2258550
 142.4347240  10.9977440  30.0184510 141.9355070  12.1718350  30.8334160
 135.8999620   4.1428170   2.9883870 135.1241720   3.6628610   3.2782440
 136.5512550   3.4633820   2.8140030 129.9165450   4.4547980   3.8659630
 129.0850330   4.1996690   4.2656140 130.5246430   4.5258750   4.6017550
 139.9207050   8.5488360   1.7683000 139.4588580   7.7775600   2.0970170
 140.7332600   8.5754430   2.2735450 129.8966710   8.4888070   4.0617650
 130.1994750   7.5985810   3.8827870 130.6410300   9.0458290   3.8339900
 126.2890410   2.0155520   3.5341720 126.8606520   1.2477720   3.5345360
 126.2891950   2.3144280   2.6248330 135.3408610   6.8185360   2.9954030
 135.2716890   5.8775300   2.8343160 136.1028470   6.9086770   3.5676600
 131.8765470   5.2461480   5.4602500 131.5434850   5.8730400   6.1023570
 132.0532150   5.7723360   4.6804170 131.0884570   7.2142280   7.2751680
 131.7058570   7.8893360   6.9936130 130.2277690   7.6230260   7.1839180
 142.0062160   8.6781690   5.1906320 141.3225680   9.3480800   5.1822990
 142.5456450   8.8762340   4.4251180 139.5420900  10.5225820   3.9051500
 139.5548060  10.1188110   3.0373760 138.9896120  11.2973110   3.8012930
 138.9406340   5.4255660   5.2334110 139.3575130   5.2115770   4.3987570
 139.6646160   5.6828450   5.8042730 142.8868440   3.8242880   5.3250350
 142.0587070   3.8935970   4.8500480 143.4818920   4.4097190   4.8566180
 132.4524940   7.0839660   3.2963100 132.1553230   6.4785130   2.6170880
 133.4024760   7.1216970   3.1852460 140.5410550  10.6571530   6.9586200
 140.0641110  11.4643720   6.7658810 139.8572340  10.0049860   7.1112410
 131.5443370   6.8221350   9.9470900 130.6471900   7.0461320  10.1944300
 131.5696240   6.9456290   8.9982300 130.3714590   3.6934670   8.5228270
 130.2322360   4.5657470   8.8915670 129.4895950   3.3507480   8.3776210
 132.1694940   9.6356370  10.7313420 132.1410370  10.0399320   9.8641850
 132.0059910   8.7066730  10.5685020 144.1209760  10.4183470  12.0277590
 144.5969480  10.8966360  12.7066670 144.7416920  10.3500960  11.3023090
 126.3233240   5.4632220   4.4399180 126.4013660   5.5980990   3.4954900
 126.9374920   4.7548110   4.6327300 143.5243010   7.6096320   9.1877600
 143.6506070   7.3708200   8.2694780 143.5664390   6.7780860   9.6599680
 137.3859750  11.3124320   7.7572410 137.9004420  11.2232330   8.5594840
 136.5428830  11.6584020   8.0500320 126.3792760   6.5046390   6.9793640
 126.5423800   6.0351750   6.1613010 126.8445210   5.9969950   7.6442480
 127.9531740   5.8797820   9.1389450 127.5686530   5.2391490   9.7372410
 128.2643930   6.5833940   9.7084180 134.1028880   2.7274360   4.6198070
 134.4699010   2.2532930   5.3659410 133.9133940   3.6015930   4.9606410
 131.8928250   1.7683000   6.9382280 131.5885320   2.6474980   7.1632640
 132.8474710   1.8282790   6.9739720 141.1798020   4.9709350   3.3275520
 141.8997140   5.4664640   2.9371630 140.9779840   4.2927240   2.6829390
 136.5616820   5.0418410   9.2144520 136.4954130   4.1214080   8.9602110
 135.9321960   5.1393850   9.9289160 127.9491980   2.6085740   8.0853640
 127.5906920   3.2739590   8.6726980 127.6546540   1.7769290   8.4566260
 131.1505100   3.0669980  10.9693190 130.8505240   3.2127160  10.0721010
 131.9216340   2.5075270  10.8766580 136.4933550   7.8638980   8.9648320
 136.5078090   6.9319940   8.7467230 135.7858650   7.9498740   9.6038090
 142.7044760   4.5046320   8.3116900 141.9792950   5.0975100   8.1146290
 143.2320220   4.4969860   7.5130270 135.9267450   9.5056550   6.0588820
 136.5709670   9.7115930   6.7362240 136.2896890   8.7444950   5.6059670
 137.1999530   7.5088900   4.7766270 137.8421760   6.8082060   4.8898440
 137.7248880   8.2887340   4.5963160 138.9737150   8.3083800   7.9802330
 139.3093390   8.8950490   8.6580250 138.0537490   8.1776510   8.2100120
 126.8113140  10.0859240   9.7492270 126.9204260   9.1453980   9.6087660
 126.1593700  10.3513990   9.1006000 134.8025730   8.3575130  11.1490390
 134.4822600   7.6384370  11.6936080 134.1284090   9.0330200  11.2226450
 142.4795770   9.8750870   2.7009170 142.6043190  10.6982040   3.1732980
 143.3461330   9.6641600   2.3533320 129.9513300  11.9682080   2.3726300
 130.6875780  11.4197540   2.6434870 130.3354220  12.8338090   2.2332290
 128.9571580  11.1528150  11.5611880 129.7584310  11.4740200  11.9747280
 128.4423400  10.7923730  12.2831790 137.7936210   7.2608020  11.5087290
 137.1874370   7.2839620  10.7683040 137.4890320   6.5291060  12.0454540
 139.2236580  10.9888310  10.1196700 140.1758330  10.9046330  10.0696940
 139.0764800  11.6530020  10.7930490 126.6769390   3.6401610  10.5047930
 127.1808410   3.0608890  11.0764160 125.9376810   3.9241840  11.0424300
 133.7307330   5.0472600  10.0383450 132.9653000   5.6157600   9.9538120
 133.9123290   4.7548810   9.1451680 140.8730680   6.7777930  10.5958470
 141.6140150   7.1153690  10.0925930 140.1103360   6.9469990  10.0428240
 128.7092470   1.7831200  11.3998000 128.7497810   1.4845070  12.3083230
 129.5637970   2.1838810  11.2405520 139.5476340   4.8292760   9.1313680
 139.9617360   4.9837840   9.9804100 138.6127340   4.9547980   9.2939460
 140.0198510   2.1688920  11.1352830 140.6019280   1.4141240  11.0473310
 140.1960280   2.6996360  10.3584310 134.3091570   4.7813240   7.1009610
 134.7279680   5.6245970   6.9285850 133.3900200   4.9185280   6.8716390
 136.6455470   2.5129420   8.4847450 136.7651680   1.9170560   9.2242290
 137.5049470   2.5499110   8.0648750 138.9843370   3.0666610   7.0609960
 138.4578590   3.5909230   6.4575100 139.3274710   3.6994000   7.6919690
 132.1598990  11.0866250   8.2167340 131.6220080  11.8112310   7.8976040
 132.4132950  10.6096590   7.4264680 135.0161200  12.3217460   8.4753990
 134.9419900  13.2252600   8.7826360 134.1140040  12.0029360   8.4476060
 126.4188490   9.6492050   1.7787610 126.7491500   8.7813110   1.5466250
 126.8479490   9.8550570   2.6092570 126.9078700  10.5162640   4.5169240
 126.4709690  10.6963440   5.3493390 127.4756380  11.2737260   4.3750960
 142.5440880  10.0179640   8.8046550 141.9442870  10.0772200   8.0610470
 142.6734780   9.0784620   8.9343400 141.2292520   6.7431620   6.9022710
 140.4152360   7.1728780   7.1648500 141.6366720   7.3550030   6.2891760
 127.7779060   3.4135440   5.4161460 128.1452100   3.3262840   6.2957480
 127.2089880   2.6501990   5.3168320 142.5782920   1.8819820   8.4291930
 142.3469010   1.6532570   7.5289880 142.8387470   2.8019370   8.3836820
 129.1931140   7.9268130  10.5781610 129.1500770   7.5561040  11.4596070
 129.3242150   8.8645700  10.7183430 132.8937170   9.4827720   6.1791330
 132.6528530   9.7502280   5.2921850 133.8339810   9.6533450   6.2342190
 144.1541330  11.5022100   6.9801970 143.6599610  11.8990970   6.2629100
 143.5454620  10.8771310   7.3739250 129.0319170  10.8730380   7.6979390
 128.4379490  10.7415080   8.4369430 129.0243010  10.0368520   7.2321490
 141.8380780  12.1445520   4.2588710 141.3783750  12.8961330   3.8846730
 141.2093240  11.4251990   4.2003510 128.6631400   8.2388760   6.6487430
 127.9365460   7.6194050   6.5813380 128.7240550   8.6329370   5.7785510
 132.2676500  10.4533760   3.4336840 132.7841520   9.8421120   2.9085100
 132.9173880  10.9562540   3.9247850 135.0072000  11.3442250   4.2605820
 135.2949810  11.0896550   3.3838830 135.5195220  10.7919610   4.8511390
 135.0744360  12.2658350  11.6274020 136.0011670  12.0302620  11.6709980
 135.0594790  13.0930350  11.1460050 141.6421920  11.4928210  11.4515060
 142.4347240  10.9977440  11.2441020 141.9355070  12.1718350  12.0590670
 118.9938090  96.2366600  57.4305070 118.9132140  95.3221210  57.1596780
 118.5802510  96.7333670  56.7244780 117.1256130  98.0145620  59.3114340
 116.3498230  97.5346060  59.6012910 117.7769060  97.3351270  59.1370500
 109.5513910  93.2867320  53.9732490 108.6630610  93.6283290  53.8712370
 109.8355100  93.0867640  53.0813320 107.5146920  95.8872970  59.8572190
 108.0863030  95.1195170  59.8575830 107.5148460  96.1861730  58.9478800
 117.5970290  93.4973190  59.5453430 117.9735110  92.6245070  59.4327100
 117.4989800  93.8331890  58.6543870 111.7275300  91.8698820  55.0070870
 111.8342050  92.7702550  55.3139630 110.8167660  91.8216790  54.7165520
 121.3794410  90.9923630  56.4781770 122.2004030  90.5020200  56.5207250
 121.4128490  91.5821290  57.2313610 113.5683030  94.8385190  59.3396050
 114.0761250  95.3366160  59.9801070 114.0996270  94.0620390  59.1635410
 121.6155890  92.9324010  59.2509310 120.9111460  93.2208900  59.8312420
 121.9768050  93.7424120  58.8908870 124.6842810  92.3778800  59.6418520
 123.7367720  92.4117780  59.7733950 125.0092800  93.1917750  60.0267880
 115.2162350  88.6775980  57.9374510 115.5237330  88.1222870  57.2210010
 114.2863050  88.8120440  57.7547500 117.6043110  96.7424810  54.6734630
 116.6772390  96.6762190  54.9023100 117.7567930  97.6804940  54.5589870
 117.5912190  93.0141810  51.6701790 116.6515860  93.1755770  51.7554250
 117.9095450  93.7327490  51.1237780 121.6340400  98.3045110  55.1769880
 121.0152820  97.9664660  54.5296180 121.6164850  97.6604870  55.8849070
 113.2099750  97.2689550  57.4554360 112.8056750  96.5566800  56.9600260
 113.2962870  96.9242790  58.3442400 119.8105100  97.5431920  52.1842630
 120.2498380  96.7054350  52.0380450 120.5233520  98.1761320  52.2706770
 123.3922240  88.7974730  50.4983670 123.0794900  88.8901560  51.3982740
 124.1534710  89.3755760  50.4481100 109.9104380  96.1634530  54.9561010
 109.7901980  96.8896620  54.3442280 109.6005270  95.3937440  54.4788920
 112.3768040  89.5069600  58.3384680 111.9336190  90.2879140  58.0069200
 112.9353030  89.8299490  59.0455620 115.4926860  89.1280300  53.2190510
 114.8681040  89.1240170  53.9443820 115.4056980  88.2611260  52.8226480
 114.4143940  90.0516930  60.1974280 114.7116270  90.9579760  60.1166300
 114.9629500  89.5635710  59.5833850 112.1682260  94.6303170  56.0665930
 111.9423180  94.4140340  56.9712550 111.3874790  95.0631630  55.7211900
 119.3980020  94.6366540  54.6656580 118.7988910  95.3602340  54.4820200
 119.9459630  94.5743320  53.8833030 118.0044890  93.2730080  56.6959860
 118.3974460  93.5902280  55.8828550 118.3661740  92.3941960  56.8104380
 107.0409060  89.8630880  58.9190060 106.7522110  90.4333740  59.6315040
 107.7854820  89.3835330  59.2821290 107.2279290  93.8051000  50.1292780
 107.1453960  94.7481760  50.2707770 106.8762350  93.6625910  49.2505130
 115.0277420  92.5390030  59.1963130 115.0313480  92.0979980  58.3467670
 115.9228540  92.8607360  59.3034950 110.8779800  92.4216520  58.1557340
 110.5379850  92.8991750  58.9124390 110.1157120  91.9681640  57.7958440
 115.0897570  93.5402110  52.1869890 115.2110390  93.4988590  53.1355710
 114.7046080  94.4026260  52.0316620 114.1019070  95.8503250  51.5853190
 113.5335970  95.4021500  50.9589100 114.8108070  96.2096030  51.0518340
 108.1925880  91.3435500  57.0722010 107.9072800  90.9791170  57.9100630
 108.1304740  90.6115960  56.4585150 117.8664470  90.2364760  53.7935380
 117.0529080  89.7377930  53.7180690 117.6726420  91.0763010  53.3771730
 120.5812860  94.6084410  52.0897540 121.4692480  94.9201640  51.9148880
 120.5517950  93.7356660  51.6978120 122.8527130  95.9196250  51.5577400
 122.7690850  96.3510470  50.7073840 123.5721320  96.3794600  51.9904220
 107.6856540  96.4794450  51.0318710 108.5551390  96.7619250  51.3154630
 107.1946860  97.2930320  50.9167520 114.8491350  97.8667660  55.1526990
 115.3054130  98.6772910  55.3787180 114.4979560  97.5490800  55.9845480
 110.7503130  88.2105310  55.6249510 110.6217760  88.2023210  56.5734430
 109.9265150  88.5488400  55.2740520 122.6097870  91.4175680  53.6445220
 121.9811030  91.5221350  52.9303450 122.1149790  91.6372460  54.4339100
 114.5781900  93.6961630  55.0603100 113.8698050  94.1647970  55.5016710
 114.8626380  93.0383640  55.6948290 118.6097330  90.4212290  56.4998890
 118.4865110  90.4398420  55.5508400 119.5581890  90.4691230  56.6197290
 112.7816920  92.0046710  52.4353810 113.6307450  92.4416860  52.3694000
 112.4148190  92.3166970  53.2625870 121.7026700  96.5759470  57.3485380
 120.7616840  96.5909700  57.5233070 122.0170770  95.7895430  57.7945680
 111.6808340  98.2579070  50.9089340 112.4471610  98.1460430  51.4714770
 111.7583030  97.5617040  50.2566110 110.3755100  95.6904140  51.5922230
 110.4558690  94.7431650  51.7039630 111.2674850  96.0211020  51.6982890
 113.7127370  98.2544200  52.8831980 114.1343790  98.0884070  53.7263370
 113.8378210  97.4444430  52.3887120 116.2255010  97.2781810  50.1309080
 116.7460670  96.5630830  49.7650230 116.8723410  97.9167680  50.4309590
 112.6086270  94.3277430  49.8290140 112.4075330  93.4644790  50.1903480
 112.4378320  94.2410790  48.8911740 120.0874580  89.1385660  52.3577020
 120.3676870  88.2953560  52.7136440 119.3140310  89.3708770  52.8715770
 111.4069070  91.4278050  49.8168020 111.7094970  91.4345480  48.9087170
 112.1463660  91.0775910  50.3135680 114.6254000  90.3712670  50.8024220
 114.2776000  89.6936660  50.2226670 114.8266770  89.9102180  51.6167610
 124.4655300  98.3762390  52.9680930 125.2274210  98.9459040  53.0740620
 124.4809670  97.8089590  53.7389240 107.9659640  96.9000320  57.1988590
 107.3108480  96.6311960  56.5548290 108.8037590  96.7904800  56.7490570
 120.9150080  91.6941610  51.4207080 121.3334960  91.5072590  50.5803740
 120.6086140  90.8420660  51.7310010 124.4139810  96.6065750  55.1182880
 124.0383410  95.8393680  54.6864170 123.6842930  96.9888450  55.6057810
 107.1797720  94.1099250  53.1413920 106.2761800  94.3729450  52.9665580
 107.6638340  94.3810420  52.3613880 123.6890770  94.8323240  58.4190120
 124.2128250  94.3385890  57.7880290 124.2750190  94.9673600  59.1637690
 109.7224930  93.1664790  51.0508300 110.4316630  92.7448010  50.5655580
 109.0064870  93.2340020  50.4191650 109.3699090  89.2204120  50.0910950
 110.0927220  89.7613060  50.4092170 109.6423610  88.9467540  49.2152490
 123.1790740  94.0896590  54.3582530 123.6749860  93.8567460  55.1431410
 122.9806810  93.2508430  53.9420170 124.6077900  92.7257540  56.8920210
 124.4977180  92.5713580  57.8302480 125.3685490  92.1978480  56.6495620
 125.4968170  90.5565460  50.1326350 126.4217480  90.4246640  49.9244640
 125.4743960  90.6358280  51.0862800 125.5706660  91.3276120  52.7583060
 124.7758160  91.2621240  53.2875970 125.7749940  92.2626760  52.7468410
 122.0026590  89.6573000  59.2081890 122.4434680  89.6018100  58.3603490
 121.7334180  90.5731010  59.2792070 123.8665160  89.2888240  57.2190710
 123.8053560  88.3449460  57.0721730 124.6457190  89.3968330  57.7644170
 108.7945930  89.2597380  53.6846520 109.5525290  89.3726260  53.1110550
 108.3323100  90.0966580  53.6389950 115.3359740  91.3736650  56.6748830
 114.5234250  90.9993540  56.3344710 115.8401380  90.6181730  56.9770020
 119.8384720  88.0379100  57.9131900 120.4414090  88.6099310  58.3880420
 119.0977710  88.6018540  57.6905800 122.9819320  88.4400660  53.1872180
 123.1769950  89.3384110  53.4539610 122.1949190  88.2087740  53.6805130
 111.1671080  89.7861430  52.2248490 111.6963840  88.9991230  52.0956440
 111.7999400  90.4652620  52.4584020 113.3608920  89.5236570  55.2793880
 112.7311660  88.8223880  55.4464010 112.8214060  90.2840700  55.0627040
 118.9938090  96.2366600  38.6561580 118.9132140  95.3221210  38.3853290
 118.5802510  96.7333670  37.9501290 117.1256130  98.0145620  40.5370850
 116.3498230  97.5346060  40.8269420 117.7769060  97.3351270  40.3627010
 111.1421960  98.3265430  41.4146610 110.3106840  98.0714140  41.8143120
 111.7502940  98.3976200  42.1504530 109.5513910  93.2867320  35.1989000
 108.6630610  93.6283290  35.0968880 109.8355100  93.0867640  34.3069830
 107.5146920  95.8872970  41.0828700 108.0863030  95.1195170  41.0832340
 107.5148460  96.1861730  40.1735310 108.7571790  91.2957330  42.8697630
 108.5774630  90.3983080  43.1500390 108.3551870  91.8429200  43.5444580
 117.5970290  93.4973190  40.7709940 117.9735110  92.6245070  40.6583610
 117.4989800  93.8331890  39.8800380 111.7275300  91.8698820  36.2327380
 111.8342050  92.7702550  36.5396140 110.8167660  91.8216790  35.9422030
 121.3794410  90.9923630  37.7038280 122.2004030  90.5020200  37.7463760
 121.4128490  91.5821290  38.4570120 109.3758460  93.7917830  41.4779970
 110.0568570  94.0556200  42.0967370 109.0606510  92.9518700  41.8117980
 113.5683030  94.8385190  40.5652560 114.0761250  95.3366160  41.2057580
 114.0996270  94.0620390  40.3891920 125.6693960  93.0090380  44.2681910
 124.9646130  93.3972090  43.7497020 125.9351880  93.7040670  44.8702840
 111.8519130  89.4783750  44.8315980 111.8537570  89.9956140  44.0261880
 111.0223440  89.0013930  44.8085910 121.6155890  92.9324010  40.4765820
 120.9111460  93.2208900  41.0568930 121.9768050  93.7424120  40.1165380
 111.5334460  91.1893710  42.8386430 111.8751270  92.0335760  42.5440300
 110.5950270  91.3377450  42.9551770 124.6842810  92.3778800  40.8675030
 123.7367720  92.4117780  40.9990460 125.0092800  93.1917750  41.2524390
 115.2162350  88.6775980  39.1631020 115.5237330  88.1222870  38.4466520
 114.2863050  88.8120440  38.9804010 117.6043110  96.7424810  35.8991140
 116.6772390  96.6762190  36.1279610 117.7567930  97.6804940  35.7846380
 117.5912190  93.0141810  32.8958300 116.6515860  93.1755770  32.9810760
 117.9095450  93.7327490  32.3494290 124.1124950  97.6960330  42.8737330
 123.2843580  97.7653420  42.3987460 124.7075430  98.2814640  42.4053160
 121.6340400  98.3045110  36.4026390 121.0152820  97.9664660  35.7552690
 121.6164850  97.6604870  37.1105580 121.0766960  94.4829650  43.8192200
 120.6638140  95.3083360  44.0732190 120.3442910  93.8974690  43.6268560
 113.2099750  97.2689550  38.6810870 112.8056750  96.5566800  38.1856770
 113.2962870  96.9242790  39.5698910 111.9228370  94.0432760  42.4609910
 112.4742960  94.1528100  41.6863160 112.4371880  94.4170360  43.1765140
 119.8105100  97.5431920  33.4099140 120.2498380  96.7054350  33.2636960
 120.5233520  98.1761320  33.4963280 111.5971100  97.5652120  46.0715250
 111.4578870  98.4374920  46.4402650 110.7152460  97.2224930  45.9263190
 123.3922240  88.7974730  31.7240180 123.0794900  88.8901560  32.6239250
 124.1534710  89.3755760  31.6737610 109.9104380  96.1634530  36.1817520
 109.7901980  96.8896620  35.5698790 109.6005270  95.3937440  35.7045430
 124.6023530  93.5346230  47.7014320 123.9867800  94.0425900  47.1729780
 124.2819950  92.6344560  47.6440260 112.3768040  89.5069600  39.5641190
 111.9336190  90.2879140  39.2325710 112.9353030  89.8299490  40.2712130
 116.6637850  92.3738120  45.1676510 116.2017220  92.5821140  45.9796450
 116.2615960  91.5597470  44.8647180 121.6642360  93.5947070  46.2973170
 120.8135950  93.2952820  46.6182240 121.5044150  93.8389080  45.3856990
 118.7592070  95.0948820  48.3971960 119.0845480  94.2612570  48.0574190
 119.5472400  95.6177340  48.5450290 115.4926860  89.1280300  34.4447020
 114.8681040  89.1240170  35.1700330 115.4056980  88.2611260  34.0482990
 114.4143940  90.0516930  41.4230790 114.7116270  90.9579760  41.3422810
 114.9629500  89.5635710  40.8090360 112.1682260  94.6303170  37.2922440
 111.9423180  94.4140340  38.1969060 111.3874790  95.0631630  36.9468410
 119.3980020  94.6366540  35.8913090 118.7988910  95.3602340  35.7076710
 119.9459630  94.5743320  35.1089540 114.6081470  95.5288750  47.9582710
 114.5125070  94.5883480  47.8083110 115.4513450  95.7503820  47.5630780
 118.0044890  93.2730080  37.9216370 118.3974460  93.5902280  37.1085060
 118.3661740  92.3941960  38.0360890 109.7392010  91.9402420  46.1116490
 109.3455400  92.7877630  46.3189270 109.0510410  91.3028790  46.3025130
 116.3137060  92.0237390  49.1813230 115.6235380  91.8309590  49.8159320
 117.0569360  92.3072030  49.7137530 107.0409060  89.8630880  40.1446570
 106.7522110  90.4333740  40.8571550 107.7854820  89.3835330  40.5077800
 107.2279290  93.8051000  31.3549290 107.1453960  94.7481760  31.4964280
 106.8762350  93.6625910  30.4761640 118.5900030  95.8635830  42.0167150
 117.8581150  96.3722640  42.3657250 118.1924370  95.0465810  41.7155930
 115.0277420  92.5390030  40.4219640 115.0313480  92.0979980  39.5724180
 115.9228540  92.8607360  40.5291460 110.8779800  92.4216520  39.3813850
 110.5379850  92.8991750  40.1380900 110.1157120  91.9681640  39.0214950
 115.0897570  93.5402110  33.4126400 115.2110390  93.4988590  34.3612220
 114.7046080  94.4026260  33.2573130 119.0525940  91.3169510  41.4290090
 119.0698680  91.7678160  42.2731940 118.8041520  90.4175150  41.6423530
 114.1019070  95.8503250  32.8109700 113.5335970  95.4021500  32.1845610
 114.8108070  96.2096030  32.2774850 122.4796690  88.7301690  47.2676470
 122.8042460  87.9991350  47.7934450 122.5153200  88.4115330  46.3657460
 115.3285390  96.5991810  42.1685050 115.6955520  96.1250380  42.9146390
 115.1390450  97.4733380  42.5093390 108.1925880  91.3435500  38.2978520
 107.9072800  90.9791170  39.1357140 108.1304740  90.6115960  37.6841660
 113.1184760  95.6400450  44.4869260 112.8141830  96.5192430  44.7119620
 114.0731220  95.7000240  44.5226700 117.8664470  90.2364760  35.0191890
 117.0529080  89.7377930  34.9437200 117.6726420  91.0763010  34.6028240
 120.5812860  94.6084410  33.3154050 121.4692480  94.9201640  33.1405390
 120.5517950  93.7356660  32.9234630 109.1748490  96.4803190  45.6340620
 108.8163430  97.1457040  46.2213960 108.8803050  95.6486740  46.0053240
 112.3761610  96.9387430  48.5180170 112.0761750  97.0844610  47.6207990
 113.1472850  96.3792720  48.4253560 122.8527130  95.9196250  32.7833910
 122.7690850  96.3510470  31.9330350 123.5721320  96.3794600  33.2160730
 123.9301270  98.3763770  45.8603880 123.2049460  98.9692550  45.6633270
 124.4576730  98.3687310  45.0617250 107.6856540  96.4794450  32.2575220
 108.5551390  96.7619250  32.5411140 107.1946860  97.2930320  32.1424030
 114.8491350  97.8667660  36.3783500 115.3054130  98.6772910  36.6043690
 114.4979560  97.5490800  37.2101990 110.7503130  88.2105310  36.8506020
 110.6217760  88.2023210  37.7990940 109.9265150  88.5488400  36.4997030
 107.7497060  89.9696430  46.3112720 107.0355580  90.1693350  46.9165330
 108.1692100  89.1936000  46.6827520 119.2435840  92.4618740  44.0614170
 119.6116660  91.6413950  44.3893740 118.3834040  92.5220630  44.4769820
 122.6097870  91.4175680  34.8701730 121.9811030  91.5221350  34.1559960
 122.1149790  91.6372460  35.6595610 114.5781900  93.6961630  36.2859610
 113.8698050  94.1647970  36.7273220 114.8626380  93.0383640  36.9204800
 116.2037830  95.1158330  44.2852140 116.7023080  95.5904150  44.9503990
 116.3460780  94.1921850  44.4922170 118.6097330  90.4212290  37.7255400
 118.4865110  90.4398420  36.7764910 119.5581890  90.4691230  37.8453800
 112.7816920  92.0046710  33.6610320 113.6307450  92.4416860  33.5950510
 112.4148190  92.3166970  34.4882380 123.4104690  91.3326290  45.1280530
 122.9078290  92.0731690  45.4674340 124.2261350  91.7210290  44.8117320
 121.7026700  96.5759470  38.5741890 120.7616840  96.5909700  38.7489580
 122.0170770  95.7895430  39.0202190 111.6808340  98.2579070  32.1345850
 112.4471610  98.1460430  32.6971280 111.7583030  97.5617040  31.4822620
 110.3755100  95.6904140  32.8178740 110.4558690  94.7431650  32.9296140
 111.2674850  96.0211020  32.9239400 107.9025900  97.5119060  48.0534910
 108.4064920  96.9326340  48.6251140 107.1633320  97.7959290  48.5911280
 109.9348980  95.6548650  48.9484980 109.9754320  95.3562520  49.8570210
 110.7894480  96.0556260  48.7892500 113.7127370  98.2544200  34.1088490
 114.1343790  98.0884070  34.9519880 113.8378210  97.4444430  33.6143630
 111.8754790  94.2340750  46.9159470 111.3451250  93.7431700  46.2882810
 112.5442860  94.6624950  46.3817400 116.2255010  97.2781810  31.3565590
 116.7460670  96.5630830  30.9906740 116.8723410  97.9167680  31.6566100
 120.7732850  98.7010210  46.6800660 121.1873870  98.8555290  47.5291080
 119.8383850  98.8265430  46.8426440 121.2455020  96.0406370  48.6839810
 121.8275790  95.2858690  48.5960290 121.4216790  96.5713810  47.9071290
 112.3627090  91.2003120  46.9956760 112.2683960  90.5823870  46.2707630
 111.7824480  91.9269410  46.7686670 115.1288530  89.7576360  44.0284150
 114.6805830  89.7800620  43.1829700 114.4953730  89.3595380  44.6254450
 117.8711980  96.3846870  46.0334430 117.9908190  95.7888010  46.7729270
 118.7305980  96.4216560  45.6135730 120.2099880  96.9384060  44.6096940
 119.6835100  97.4626680  44.0062080 120.5531220  97.5711450  45.2406670
 112.6086270  94.3277430  31.0546650 112.4075330  93.4644790  31.4159990
 112.4378320  94.2410790  30.1168250 114.6380750  92.9268220  47.2910250
 115.2280440  92.6184070  47.9788070 113.8200990  92.4547970  47.4470150
 120.0874580  89.1385660  33.5833530 120.3676870  88.2953560  33.9392950
 119.3140310  89.3708770  34.0972280 111.4069070  91.4278050  31.0424530
 111.7094970  91.4345480  30.1343680 112.1463660  91.0775910  31.5392190
 114.6254000  90.3712670  32.0280730 114.2776000  89.6936660  31.4483180
 114.8266770  89.9102180  32.8424120 124.4655300  98.3762390  34.1937440
 125.2274210  98.9459040  34.2997130 124.4809670  97.8089590  34.9645750
 107.9659640  96.9000320  38.4245100 107.3108480  96.6311960  37.7804800
 108.8037590  96.7904800  37.9747080 120.9150080  91.6941610  32.6463590
 121.3334960  91.5072590  31.8060250 120.6086140  90.8420660  32.9566520
 124.4139810  96.6065750  36.3439390 124.0383410  95.8393680  35.9120680
 123.6842930  96.9888450  36.8314320 109.0035570  97.2852890  42.9648440
 109.3708610  97.1980290  43.8444460 108.4346390  96.5219440  42.8655300
 123.8039430  95.7537270  45.9778910 123.5725520  95.5250020  45.0776860
 124.0643980  96.6736820  45.9323800 108.5551570  94.1961980  46.8706860
 107.6607620  94.1628740  47.2100570 109.0949120  94.3948770  47.6358110
 122.2427500  90.9793700  48.7558610 123.1197680  90.9877100  49.1392610
 122.2548340  90.2424540  48.1450960 107.1797720  94.1099250  34.3670430
 106.2761800  94.3729450  34.1922090 107.6638340  94.3810420  33.5870390
 123.6890770  94.8323240  39.6446630 124.2128250  94.3385890  39.0136800
 124.2750190  94.9673600  40.3894200 123.8680490  94.9163110  43.1666180
 122.9183200  94.8826650  43.2811170 124.0493500  95.8263220  42.9315950
 109.7224930  93.1664790  32.2764810 110.4316630  92.7448010  31.7912090
 109.0064870  93.2340020  31.6448160 109.3699090  89.2204120  31.3167460
 110.0927220  89.7613060  31.6348680 109.6423610  88.9467540  30.4409000
 123.1790740  94.0896590  35.5839040 123.6749860  93.8567460  36.3687920
 122.9806810  93.2508430  35.1676680 109.0591280  88.4710310  41.2190080
 109.7067470  87.9207690  40.7785240 109.4793120  88.7253460  42.0405890
 124.6077900  92.7257540  38.1176720 124.4977180  92.5713580  39.0558990
 125.3685490  92.1978480  37.8752130 122.9543620  88.6651670  44.5759720
 123.5915840  89.2785810  44.9418910 123.1018510  88.7012330  43.6308950
 125.4968170  90.5565460  31.3582860 126.4217480  90.4246640  31.1501150
 125.4743960  90.6358280  32.3119310 125.5706660  91.3276120  33.9839570
 124.7758160  91.2621240  34.5132480 125.7749940  92.2626760  33.9724920
 108.8123280  88.6265980  43.9615400 108.4638100  89.0829800  44.7273580
 108.4810980  87.7323110  44.0437830 116.3248100  89.8177860  47.4834820
 116.2636990  90.4099690  48.2330230 117.2648480  89.7103820  47.3385080
 118.9622660  89.4747920  47.1227110 119.5763070  89.7927210  46.4608190
 119.5072220  88.9896510  47.7422970 109.4843920  88.1542180  47.2366170
 110.0326910  87.9730230  46.4732280 109.5499230  87.3636290  47.7722480
 119.7030700  88.0380060  43.4496400 118.8290540  88.3715170  43.2469330
 119.5941450  87.5653240  44.2748270 120.6102680  90.2450930  44.8338120
 120.2816040  89.4302690  44.4539850 121.5584980  90.2020740  44.7103810
 117.4505520  88.9549900  42.3889310 116.6677310  89.4295400  42.6686070
 117.1568450  88.0504730  42.2802490 122.0026590  89.6573000  40.4338400
 122.4434680  89.6018100  39.5860000 121.7334180  90.5731010  40.5048580
 123.8665160  89.2888240  38.4447220 123.8053560  88.3449460  38.2978240
 124.6457190  89.3968330  38.9900680 108.7945930  89.2597380  34.9103030
 109.5525290  89.3726260  34.3367060 108.3323100  90.0966580  34.8646460
 115.3359740  91.3736650  37.9005340 114.5234250  90.9993540  37.5601220
 115.8401380  90.6181730  38.2026530 119.8384720  88.0379100  39.1388410
 120.4414090  88.6099310  39.6136930 119.0977710  88.6018540  38.9162310
 122.9819320  88.4400660  34.4128690 123.1769950  89.3384110  34.6796120
 122.1949190  88.2087740  34.9061640 111.1671080  89.7861430  33.4505000
 111.6963840  88.9991230  33.3212950 111.7999400  90.4652620  33.6840530
 113.3608920  89.5236570  36.5050390 112.7311660  88.8223880  36.6720520
 112.8214060  90.2840700  36.2883550 113.4864480  88.8020550  48.9402880
 113.2048750  89.3054150  48.1763700 113.8684180  88.0042300  48.5745010
 120.0879940  88.2174130  49.5183350 119.9745390  88.5368740  50.4134870
 120.9049680  88.6186640  49.2220630 118.9938090  96.2366600  19.8818090
 118.9132140  95.3221210  19.6109800 118.5802510  96.7333670  19.1757800
 117.1256130  98.0145620  21.7627360 116.3498230  97.5346060  22.0525930
 117.7769060  97.3351270  21.5883520 111.1421960  98.3265430  22.6403120
 110.3106840  98.0714140  23.0399630 111.7502940  98.3976200  23.3761040
 109.5513910  93.2867320  16.4245510 108.6630610  93.6283290  16.3225390
 109.8355100  93.0867640  15.5326340 107.5146920  95.8872970  22.3085210
 108.0863030  95.1195170  22.3088850 107.5148460  96.1861730  21.3991820
 108.7571790  91.2957330  24.0954140 108.5774630  90.3983080  24.3756900
 108.3551870  91.8429200  24.7701090 117.5970290  93.4973190  21.9966450
 117.9735110  92.6245070  21.8840120 117.4989800  93.8331890  21.1056890
 111.7275300  91.8698820  17.4583890 111.8342050  92.7702550  17.7652650
 110.8167660  91.8216790  17.1678540 121.3794410  90.9923630  18.9294790
 122.2004030  90.5020200  18.9720270 121.4128490  91.5821290  19.6826630
 109.3758460  93.7917830  22.7036480 110.0568570  94.0556200  23.3223880
 109.0606510  92.9518700  23.0374490 113.5683030  94.8385190  21.7909070
 114.0761250  95.3366160  22.4314090 114.0996270  94.0620390  21.6148430
 125.6693960  93.0090380  25.4938420 124.9646130  93.3972090  24.9753530
 125.9351880  93.7040670  26.0959350 111.8519130  89.4783750  26.0572490
 111.8537570  89.9956140  25.2518390 111.0223440  89.0013930  26.0342420
 121.6155890  92.9324010  21.7022330 120.9111460  93.2208900  22.2825440
 121.9768050  93.7424120  21.3421890 111.5334460  91.1893710  24.0642940
 111.8751270  92.0335760  23.7696810 110.5950270  91.3377450  24.1808280
 124.6842810  92.3778800  22.0931540 123.7367720  92.4117780  22.2246970
 125.0092800  93.1917750  22.4780900 115.2162350  88.6775980  20.3887530
 115.5237330  88.1222870  19.6723030 114.2863050  88.8120440  20.2060520
 117.6043110  96.7424810  17.1247650 116.6772390  96.6762190  17.3536120
 117.7567930  97.6804940  17.0102890 117.5912190  93.0141810  14.1214810
 116.6515860  93.1755770  14.2067270 117.9095450  93.7327490  13.5750800
 121.6340400  98.3045110  17.6282900 121.0152820  97.9664660  16.9809200
 121.6164850  97.6604870  18.3362090 121.0766960  94.4829650  25.0448710
 120.6638140  95.3083360  25.2988700 120.3442910  93.8974690  24.8525070
 113.2099750  97.2689550  19.9067380 112.8056750  96.5566800  19.4113280
 113.2962870  96.9242790  20.7955420 111.9228370  94.0432760  23.6866420
 112.4742960  94.1528100  22.9119670 112.4371880  94.4170360  24.4021650
 119.8105100  97.5431920  14.6355650 120.2498380  96.7054350  14.4893470
 120.5233520  98.1761320  14.7219790 111.5971100  97.5652120  27.2971760
 111.4578870  98.4374920  27.6659160 110.7152460  97.2224930  27.1519700
 123.3922240  88.7974730  12.9496690 123.0794900  88.8901560  13.8495760
 124.1534710  89.3755760  12.8994120 109.9104380  96.1634530  17.4074030
 109.7901980  96.8896620  16.7955300 109.6005270  95.3937440  16.9301940
 124.6023530  93.5346230  28.9270830 123.9867800  94.0425900  28.3986290
 124.2819950  92.6344560  28.8696770 112.3768040  89.5069600  20.7897700
 111.9336190  90.2879140  20.4582220 112.9353030  89.8299490  21.4968640
 116.6637850  92.3738120  26.3933020 116.2017220  92.5821140  27.2052960
 116.2615960  91.5597470  26.0903690 121.6642360  93.5947070  27.5229680
 120.8135950  93.2952820  27.8438750 121.5044150  93.8389080  26.6113500
 118.7592070  95.0948820  29.6228470 119.0845480  94.2612570  29.2830700
 119.5472400  95.6177340  29.7706800 115.4926860  89.1280300  15.6703530
 114.8681040  89.1240170  16.3956840 115.4056980  88.2611260  15.2739500
 114.4143940  90.0516930  22.6487300 114.7116270  90.9579760  22.5679320
 114.9629500  89.5635710  22.0346870 112.1682260  94.6303170  18.5178950
 111.9423180  94.4140340  19.4225570 111.3874790  95.0631630  18.1724920
 119.3980020  94.6366540  17.1169600 118.7988910  95.3602340  16.9333220
 119.9459630  94.5743320  16.3346050 114.6081470  95.5288750  29.1839220
 114.5125070  94.5883480  29.0339620 115.4513450  95.7503820  28.7887290
 118.0044890  93.2730080  19.1472880 118.3974460  93.5902280  18.3341570
 118.3661740  92.3941960  19.2617400 109.7392010  91.9402420  27.3373000
 109.3455400  92.7877630  27.5445780 109.0510410  91.3028790  27.5281640
 116.3137060  92.0237390  30.4069740 115.6235380  91.8309590  31.0415830
 117.0569360  92.3072030  30.9394040 107.0409060  89.8630880  21.3703080
 106.7522110  90.4333740  22.0828060 107.7854820  89.3835330  21.7334310
 107.2279290  93.8051000  12.5805800 107.1453960  94.7481760  12.7220790
 106.8762350  93.6625910  11.7018150 118.5900030  95.8635830  23.2423660
 117.8581150  96.3722640  23.5913760 118.1924370  95.0465810  22.9412440
 115.0277420  92.5390030  21.6476150 115.0313480  92.0979980  20.7980690
 115.9228540  92.8607360  21.7547970 110.8779800  92.4216520  20.6070360
 110.5379850  92.8991750  21.3637410 110.1157120  91.9681640  20.2471460
 115.0897570  93.5402110  14.6382910 115.2110390  93.4988590  15.5868730
 114.7046080  94.4026260  14.4829640 119.0525940  91.3169510  22.6546600
 119.0698680  91.7678160  23.4988450 118.8041520  90.4175150  22.8680040
 114.1019070  95.8503250  14.0366210 113.5335970  95.4021500  13.4102120
 114.8108070  96.2096030  13.5031360 122.4796690  88.7301690  28.4932980
 122.8042460  87.9991350  29.0190960 122.5153200  88.4115330  27.5913970
 115.3285390  96.5991810  23.3941560 115.6955520  96.1250380  24.1402900
 115.1390450  97.4733380  23.7349900 108.1925880  91.3435500  19.5235030
 107.9072800  90.9791170  20.3613650 108.1304740  90.6115960  18.9098170
 113.1184760  95.6400450  25.7125770 112.8141830  96.5192430  25.9376130
 114.0731220  95.7000240  25.7483210 117.8664470  90.2364760  16.2448400
 117.0529080  89.7377930  16.1693710 117.6726420  91.0763010  15.8284750
 120.5812860  94.6084410  14.5410560 121.4692480  94.9201640  14.3661900
 120.5517950  93.7356660  14.1491140 109.1748490  96.4803190  26.8597130
 108.8163430  97.1457040  27.4470470 108.8803050  95.6486740  27.2309750
 112.3761610  96.9387430  29.7436680 112.0761750  97.0844610  28.8464500
 113.1472850  96.3792720  29.6510070 122.8527130  95.9196250  14.0090420
 122.7690850  96.3510470  13.1586860 123.5721320  96.3794600  14.4417240
 123.9301270  98.3763770  27.0860390 123.2049460  98.9692550  26.8889780
 124.4576730  98.3687310  26.2873760 107.6856540  96.4794450  13.4831730
 108.5551390  96.7619250  13.7667650 107.1946860  97.2930320  13.3680540
 114.8491350  97.8667660  17.6040010 115.3054130  98.6772910  17.8300200
 114.4979560  97.5490800  18.4358500 110.7503130  88.2105310  18.0762530
 110.6217760  88.2023210  19.0247450 109.9265150  88.5488400  17.7253540
 107.7497060  89.9696430  27.5369230 107.0355580  90.1693350  28.1421840
 108.1692100  89.1936000  27.9084030 119.2435840  92.4618740  25.2870680
 119.6116660  91.6413950  25.6150250 118.3834040  92.5220630  25.7026330
 122.6097870  91.4175680  16.0958240 121.9811030  91.5221350  15.3816470
 122.1149790  91.6372460  16.8852120 114.5781900  93.6961630  17.5116120
 113.8698050  94.1647970  17.9529730 114.8626380  93.0383640  18.1461310
 116.2037830  95.1158330  25.5108650 116.7023080  95.5904150  26.1760500
 116.3460780  94.1921850  25.7178680 118.6097330  90.4212290  18.9511910
 118.4865110  90.4398420  18.0021420 119.5581890  90.4691230  19.0710310
 112.7816920  92.0046710  14.8866830 113.6307450  92.4416860  14.8207020
 112.4148190  92.3166970  15.7138890 123.4104690  91.3326290  26.3537040
 122.9078290  92.0731690  26.6930850 124.2261350  91.7210290  26.0373830
 121.7026700  96.5759470  19.7998400 120.7616840  96.5909700  19.9746090
 122.0170770  95.7895430  20.2458700 111.6808340  98.2579070  13.3602360
 112.4471610  98.1460430  13.9227790 111.7583030  97.5617040  12.7079130
 110.3755100  95.6904140  14.0435250 110.4558690  94.7431650  14.1552650
 111.2674850  96.0211020  14.1495910 107.9025900  97.5119060  29.2791420
 108.4064920  96.9326340  29.8507650 107.1633320  97.7959290  29.8167790
 109.9348980  95.6548650  30.1741490 109.9754320  95.3562520  31.0826720
 110.7894480  96.0556260  30.0149010 113.7127370  98.2544200  15.3345000
 114.1343790  98.0884070  16.1776390 113.8378210  97.4444430  14.8400140
 111.8754790  94.2340750  28.1415980 111.3451250  93.7431700  27.5139320
 112.5442860  94.6624950  27.6073910 116.2255010  97.2781810  12.5822100
 116.7460670  96.5630830  12.2163250 116.8723410  97.9167680  12.8822610
 120.7732850  98.7010210  27.9057170 121.1873870  98.8555290  28.7547590
 119.8383850  98.8265430  28.0682950 121.2455020  96.0406370  29.9096320
 121.8275790  95.2858690  29.8216800 121.4216790  96.5713810  29.1327800
 112.3627090  91.2003120  28.2213270 112.2683960  90.5823870  27.4964140
 111.7824480  91.9269410  27.9943180 115.1288530  89.7576360  25.2540660
 114.6805830  89.7800620  24.4086210 114.4953730  89.3595380  25.8510960
 117.8711980  96.3846870  27.2590940 117.9908190  95.7888010  27.9985780
 118.7305980  96.4216560  26.8392240 120.2099880  96.9384060  25.8353450
 119.6835100  97.4626680  25.2318590 120.5531220  97.5711450  26.4663180
 112.6086270  94.3277430  12.2803160 112.4075330  93.4644790  12.6416500
 112.4378320  94.2410790  11.3424760 114.6380750  92.9268220  28.5166760
 115.2280440  92.6184070  29.2044580 113.8200990  92.4547970  28.6726660
 119.4574180  92.5434030  28.7499780 118.7689700  91.8815570  28.6849770
 120.1780200  92.0972300  29.1948240 120.0874580  89.1385660  14.8090040
 120.3676870  88.2953560  15.1649460 119.3140310  89.3708770  15.3228790
 111.4069070  91.4278050  12.2681040 111.7094970  91.4345480  11.3600190
 112.1463660  91.0775910  12.7648700 114.6254000  90.3712670  13.2537240
 114.2776000  89.6936660  12.6739690 114.8266770  89.9102180  14.0680630
 124.4655300  98.3762390  15.4193950 125.2274210  98.9459040  15.5253640
 124.4809670  97.8089590  16.1902260 107.9659640  96.9000320  19.6501610
 107.3108480  96.6311960  19.0061310 108.8037590  96.7904800  19.2003590
 120.9150080  91.6941610  13.8720100 121.3334960  91.5072590  13.0316760
 120.6086140  90.8420660  14.1823030 124.4139810  96.6065750  17.5695900
 124.0383410  95.8393680  17.1377190 123.6842930  96.9888450  18.0570830
 109.0035570  97.2852890  24.1904950 109.3708610  97.1980290  25.0700970
 108.4346390  96.5219440  24.0911810 123.8039430  95.7537270  27.2035420
 123.5725520  95.5250020  26.3033370 124.0643980  96.6736820  27.1580310
 108.5551570  94.1961980  28.0963370 107.6607620  94.1628740  28.4357080
 109.0949120  94.3948770  28.8614620 122.2427500  90.9793700  29.9815120
 123.1197680  90.9877100  30.3649120 122.2548340  90.2424540  29.3707470
 107.1797720  94.1099250  15.5926940 106.2761800  94.3729450  15.4178600
 107.6638340  94.3810420  14.8126900 123.6890770  94.8323240  20.8703140
 124.2128250  94.3385890  20.2393310 124.2750190  94.9673600  21.6150710
 123.8680490  94.9163110  24.3922690 122.9183200  94.8826650  24.5067680
 124.0493500  95.8263220  24.1572460 109.7224930  93.1664790  13.5021320
 110.4316630  92.7448010  13.0168600 109.0064870  93.2340020  12.8704670
 109.3699090  89.2204120  12.5423970 110.0927220  89.7613060  12.8605190
 109.6423610  88.9467540  11.6665510 123.1790740  94.0896590  16.8095550
 123.6749860  93.8567460  17.5944430 122.9806810  93.2508430  16.3933190
 109.0591280  88.4710310  22.4446590 109.7067470  87.9207690  22.0041750
 109.4793120  88.7253460  23.2662400 124.6077900  92.7257540  19.3433230
 124.4977180  92.5713580  20.2815500 125.3685490  92.1978480  19.1008640
 122.9543620  88.6651670  25.8016230 123.5915840  89.2785810  26.1675420
 123.1018510  88.7012330  24.8565460 125.4968170  90.5565460  12.5839370
 126.4217480  90.4246640  12.3757660 125.4743960  90.6358280  13.5375820
 125.5706660  91.3276120  15.2096080 124.7758160  91.2621240  15.7388990
 125.7749940  92.2626760  15.1981430 108.8123280  88.6265980  25.1871910
 108.4638100  89.0829800  25.9530090 108.4810980  87.7323110  25.2694340
 116.3248100  89.8177860  28.7091330 116.2636990  90.4099690  29.4586740
 117.2648480  89.7103820  28.5641590 118.9622660  89.4747920  28.3483620
 119.5763070  89.7927210  27.6864700 119.5072220  88.9896510  28.9679480
 109.4843920  88.1542180  28.4622680 110.0326910  87.9730230  27.6988790
 109.5499230  87.3636290  28.9978990 119.7030700  88.0380060  24.6752910
 118.8290540  88.3715170  24.4725840 119.5941450  87.5653240  25.5004780
 120.6102680  90.2450930  26.0594630 120.2816040  89.4302690  25.6796360
 121.5584980  90.2020740  25.9360320 117.4505520  88.9549900  23.6145820
 116.6677310  89.4295400  23.8942580 117.1568450  88.0504730  23.5059000
 122.0026590  89.6573000  21.6594910 122.4434680  89.6018100  20.8116510
 121.7334180  90.5731010  21.7305090 123.8665160  89.2888240  19.6703730
 123.8053560  88.3449460  19.5234750 124.6457190  89.3968330  20.2157190
 108.7945930  89.2597380  16.1359540 109.5525290  89.3726260  15.5623570
 108.3323100  90.0966580  16.0902970 115.3359740  91.3736650  19.1261850
 114.5234250  90.9993540  18.7857730 115.8401380  90.6181730  19.4283040
 119.8384720  88.0379100  20.3644920 120.4414090  88.6099310  20.8393440
 119.0977710  88.6018540  20.1418820 122.9819320  88.4400660  15.6385200
 123.1769950  89.3384110  15.9052630 122.1949190  88.2087740  16.1318150
 111.1671080  89.7861430  14.6761510 111.6963840  88.9991230  14.5469460
 111.7999400  90.4652620  14.9097040 113.3608920  89.5236570  17.7306900
 112.7311660  88.8223880  17.8977030 112.8214060  90.2840700  17.5140060
 113.4864480  88.8020550  30.1659390 113.2048750  89.3054150  29.4020210
 113.8684180  88.0042300  29.8001520 120.0879940  88.2174130  30.7439860
 119.9745390  88.5368740  31.6391380 120.9049680  88.6186640  30.4477140
 117.1256130  98.0145620   2.9883870 116.3498230  97.5346060   3.2782440
 117.7769060  97.3351270   2.8140030 111.1421960  98.3265430   3.8659630
 110.3106840  98.0714140   4.2656140 111.7502940  98.3976200   4.6017550
 107.5146920  95.8872970   3.5341720 108.0863030  95.1195170   3.5345360
 107.5148460  96.1861730   2.6248330 108.7571790  91.2957330   5.3210650
 108.5774630  90.3983080   5.6013410 108.3551870  91.8429200   5.9957600
 117.5970290  93.4973190   3.2222960 117.9735110  92.6245070   3.1096630
 117.4989800  93.8331890   2.3313400 109.3758460  93.7917830   3.9292990
 110.0568570  94.0556200   4.5480390 109.0606510  92.9518700   4.2631000
 113.5683030  94.8385190   3.0165580 114.0761250  95.3366160   3.6570600
 114.0996270  94.0620390   2.8404940 125.6693960  93.0090380   6.7194930
 124.9646130  93.3972090   6.2010040 125.9351880  93.7040670   7.3215860
 111.8519130  89.4783750   7.2829000 111.8537570  89.9956140   6.4774900
 111.0223440  89.0013930   7.2598930 121.6155890  92.9324010   2.9278840
 120.9111460  93.2208900   3.5081950 121.9768050  93.7424120   2.5678400
 111.5334460  91.1893710   5.2899450 111.8751270  92.0335760   4.9953320
 110.5950270  91.3377450   5.4064790 124.6842810  92.3778800   3.3188050
 123.7367720  92.4117780   3.4503480 125.0092800  93.1917750   3.7037410
 124.1124950  97.6960330   5.3250350 123.2843580  97.7653420   4.8500480
 124.7075430  98.2814640   4.8566180 121.0766960  94.4829650   6.2705220
 120.6638140  95.3083360   6.5245210 120.3442910  93.8974690   6.0781580
 111.9228370  94.0432760   4.9122930 112.4742960  94.1528100   4.1376180
 112.4371880  94.4170360   5.6278160 111.5971100  97.5652120   8.5228270
 111.4578870  98.4374920   8.8915670 110.7152460  97.2224930   8.3776210
 124.6023530  93.5346230  10.1527340 123.9867800  94.0425900   9.6242800
 124.2819950  92.6344560  10.0953280 112.3768040  89.5069600   2.0154210
 111.9336190  90.2879140   1.6838730 112.9353030  89.8299490   2.7225150
 116.6637850  92.3738120   7.6189530 116.2017220  92.5821140   8.4309470
 116.2615960  91.5597470   7.3160200 121.6642360  93.5947070   8.7486190
 120.8135950  93.2952820   9.0695260 121.5044150  93.8389080   7.8370010
 118.7592070  95.0948820  10.8484980 119.0845480  94.2612570  10.5087210
 119.5472400  95.6177340  10.9963310 114.6081470  95.5288750  10.4095730
 114.5125070  94.5883480  10.2596130 115.4513450  95.7503820  10.0143800
 109.7392010  91.9402420   8.5629510 109.3455400  92.7877630   8.7702290
 109.0510410  91.3028790   8.7538150 116.3137060  92.0237390  11.6326250
 115.6235380  91.8309590  12.2672340 117.0569360  92.3072030  12.1650550
 107.0409060  89.8630880   2.5959590 106.7522110  90.4333740   3.3084570
 107.7854820  89.3835330   2.9590820 118.5900030  95.8635830   4.4680170
 117.8581150  96.3722640   4.8170270 118.1924370  95.0465810   4.1668950
 115.0277420  92.5390030   2.8732660 115.0313480  92.0979980   2.0237200
 115.9228540  92.8607360   2.9804480 110.8779800  92.4216520   1.8326870
 110.5379850  92.8991750   2.5893920 110.1157120  91.9681640   1.4727970
 119.0525940  91.3169510   3.8803110 119.0698680  91.7678160   4.7244960
 118.8041520  90.4175150   4.0936550 122.4796690  88.7301690   9.7189490
 122.8042460  87.9991350  10.2447470 122.5153200  88.4115330   8.8170480
 115.3285390  96.5991810   4.6198070 115.6955520  96.1250380   5.3659410
 115.1390450  97.4733380   4.9606410 113.1184760  95.6400450   6.9382280
 112.8141830  96.5192430   7.1632640 114.0731220  95.7000240   6.9739720
 109.1748490  96.4803190   8.0853640 108.8163430  97.1457040   8.6726980
 108.8803050  95.6486740   8.4566260 112.3761610  96.9387430  10.9693190
 112.0761750  97.0844610  10.0721010 113.1472850  96.3792720  10.8766580
 123.9301270  98.3763770   8.3116900 123.2049460  98.9692550   8.1146290
 124.4576730  98.3687310   7.5130270 107.7497060  89.9696430   8.7625740
 107.0355580  90.1693350   9.3678350 108.1692100  89.1936000   9.1340540
 119.2435840  92.4618740   6.5127190 119.6116660  91.6413950   6.8406760
 118.3834040  92.5220630   6.9282840 116.2037830  95.1158330   6.7365160
 116.7023080  95.5904150   7.4017010 116.3460780  94.1921850   6.9435190
 123.4104690  91.3326290   7.5793550 122.9078290  92.0731690   7.9187360
 124.2261350  91.7210290   7.2630340 107.9025900  97.5119060  10.5047930
 108.4064920  96.9326340  11.0764160 107.1633320  97.7959290  11.0424300
 109.9348980  95.6548650  11.3998000 109.9754320  95.3562520  12.3083230
 110.7894480  96.0556260  11.2405520 111.8754790  94.2340750   9.3672490
 111.3451250  93.7431700   8.7395830 112.5442860  94.6624950   8.8330420
 120.7732850  98.7010210   9.1313680 121.1873870  98.8555290   9.9804100
 119.8383850  98.8265430   9.2939460 121.2455020  96.0406370  11.1352830
 121.8275790  95.2858690  11.0473310 121.4216790  96.5713810  10.3584310
 112.3627090  91.2003120   9.4469780 112.2683960  90.5823870   8.7220650
 111.7824480  91.9269410   9.2199690 115.1288530  89.7576360   6.4797170
 114.6805830  89.7800620   5.6342720 114.4953730  89.3595380   7.0767470
 117.8711980  96.3846870   8.4847450 117.9908190  95.7888010   9.2242290
 118.7305980  96.4216560   8.0648750 120.2099880  96.9384060   7.0609960
 119.6835100  97.4626680   6.4575100 120.5531220  97.5711450   7.6919690
 114.6380750  92.9268220   9.7423270 115.2280440  92.6184070  10.4301090
 113.8200990  92.4547970   9.8983170 119.4574180  92.5434030   9.9756290
 118.7689700  91.8815570   9.9106280 120.1780200  92.0972300  10.4204750
 109.0035570  97.2852890   5.4161460 109.3708610  97.1980290   6.2957480
 108.4346390  96.5219440   5.3168320 123.8039430  95.7537270   8.4291930
 123.5725520  95.5250020   7.5289880 124.0643980  96.6736820   8.3836820
 108.5551570  94.1961980   9.3219880 107.6607620  94.1628740   9.6613590
 109.0949120  94.3948770  10.0871130 122.2427500  90.9793700  11.2071630
 123.1197680  90.9877100  11.5905630 122.2548340  90.2424540  10.5963980
 123.6890770  94.8323240   2.0959650 124.2128250  94.3385890   1.4649820
 124.2750190  94.9673600   2.8407220 123.8680490  94.9163110   5.6179200
 122.9183200  94.8826650   5.7324190 124.0493500  95.8263220   5.3828970
 109.0591280  88.4710310   3.6703100 109.7067470  87.9207690   3.2298260
 109.4793120  88.7253460   4.4918910 122.9543620  88.6651670   7.0272740
 123.5915840  89.2785810   7.3931930 123.1018510  88.7012330   6.0821970
 108.8123280  88.6265980   6.4128420 108.4638100  89.0829800   7.1786600
 108.4810980  87.7323110   6.4950850 116.3248100  89.8177860   9.9347840
 116.2636990  90.4099690  10.6843250 117.2648480  89.7103820   9.7898100
 118.9622660  89.4747920   9.5740130 119.5763070  89.7927210   8.9121210
 119.5072220  88.9896510  10.1935990 109.4843920  88.1542180   9.6879190
 110.0326910  87.9730230   8.9245300 109.5499230  87.3636290  10.2235500
 119.7030700  88.0380060   5.9009420 118.8290540  88.3715170   5.6982350
 119.5941450  87.5653240   6.7261290 120.6102680  90.2450930   7.2851140
 120.2816040  89.4302690   6.9052870 121.5584980  90.2020740   7.1616830
 117.4505520  88.9549900   4.8402330 116.6677310  89.4295400   5.1199090
 117.1568450  88.0504730   4.7315510 122.0026590  89.6573000   2.8851420
 122.4434680  89.6018100   2.0373020 121.7334180  90.5731010   2.9561600
 113.4864480  88.8020550  11.3915900 113.2048750  89.3054150  10.6276720
 113.8684180  88.0042300  11.0258030 120.0879940  88.2174130  11.9696370
 119.9745390  88.5368740  12.8647890 120.9049680  88.6186640  11.6733650
 118.9938090  77.4623110  57.4305070 118.9132140  76.5477720  57.1596780
 118.5802510  77.9590180  56.7244780 117.1256130  79.2402130  59.3114340
 116.3498230  78.7602570  59.6012910 117.7769060  78.5607780  59.1370500
 121.1463560  83.6462320  58.0913470 120.6845090  82.8749560  58.4200640
 121.9589110  83.6728390  58.5965920 109.5513910  74.5123830  53.9732490
 108.6630610  74.8539800  53.8712370 109.8355100  74.3124150  53.0813320
 107.5146920  77.1129480  59.8572190 108.0863030  76.3451680  59.8575830
 107.5148460  77.4118240  58.9478800 117.3726870  85.9320330  57.7117460
 116.7538310  86.3877830  57.1411900 118.2278650  86.0871790  57.3107160
 116.5665120  81.9159320  59.3184500 116.4973400  80.9749260  59.1573630
 117.3284980  82.0060730  59.8907070 117.5970290  74.7229700  59.5453430
 117.9735110  73.8501580  59.4327100 117.4989800  75.0588400  58.6543870
 111.7275300  73.0955330  55.0070870 111.8342050  73.9959060  55.3139630
 110.8167660  73.0473300  54.7165520 121.3794410  72.2180140  56.4781770
 122.2004030  71.7276710  56.5207250 121.4128490  72.8077800  57.2313610
 113.5683030  76.0641700  59.3396050 114.0761250  76.5622670  59.9801070
 114.0996270  75.2876900  59.1635410 118.2390220  80.8159570  55.1049370
 117.6207490  81.2809020  54.5412090 118.7513470  81.5087050  55.5218880
 121.6155890  74.1580520  59.2509310 120.9111460  74.4465410  59.8312420
 121.9768050  74.9680630  58.8908870 107.6073420  81.5016100  52.4789000
 107.2301400  81.9903200  51.7473900 107.8646490  82.1741380  53.1095530
 124.6842810  73.6035310  59.6418520 123.7367720  73.6374290  59.7733950
 125.0092800  74.4174260  60.0267880 115.2162350  69.9032490  57.9374510
 115.5237330  69.3479380  57.2210010 114.2863050  70.0376950  57.7547500
 120.7677410  85.6199780  60.2281970 120.7804570  85.2162070  59.3604230
 120.2152630  86.3947070  60.1243400 122.0622830  82.3416000  55.3172140
 121.9519160  81.3990330  55.4421560 122.0591080  82.7031640  56.2034900
 117.6043110  77.9681320  54.6734630 116.6772390  77.9018700  54.9023100
 117.7567930  78.9061450  54.5589870 117.5912190  74.2398320  51.6701790
 116.6515860  74.4012280  51.7554250 117.9095450  74.9584000  51.1237780
 121.6340400  79.5301620  55.1769880 121.0152820  79.1921170  54.5296180
 121.6164850  78.8861380  55.8849070 113.2099750  78.4946060  57.4554360
 112.8056750  77.7823310  56.9600260 113.2962870  78.1499300  58.3442400
 113.6781450  82.1813620  59.6193570 113.3809740  81.5759090  58.9401350
 114.6281270  82.2190930  59.5082930 119.8105100  78.7688430  52.1842630
 120.2498380  77.9310860  52.0380450 120.5233520  79.4017830  52.2706770
 117.9200480  83.7084500  56.1523870 118.3596390  84.4508830  55.7379260
 117.8587370  83.9511070  57.0762830 123.3922240  70.0231240  50.4983670
 123.0794900  70.1158070  51.3982740 124.1534710  70.6012270  50.4481100
 109.9104380  77.3891040  54.9561010 109.7901980  78.1153130  54.3442280
 109.6005270  76.6193950  54.4788920 108.7937380  82.2606370  57.1735830
 108.3865460  82.4020960  56.3189430 109.6850390  81.9766530  56.9707040
 120.5870660  86.6953620  53.5086880 120.4271800  86.4056560  54.4068710
 120.4217370  85.9193750  52.9732110 113.0659040  86.4752150  55.2858500
 112.8901520  85.5587690  55.0726300 112.2114780  86.8339440  55.5256300
 120.2896790  84.2041180  52.0684880 119.5961950  84.2018470  51.4087160
 121.0319650  83.7800500  51.6379050 119.8546720  85.8303890  56.1433370
 120.3103670  85.0493270  56.4571990 120.1939240  86.5410710  56.6874550
 112.3768040  70.7326110  58.3384680 111.9336190  71.5135650  58.0069200
 112.9353030  71.0556000  59.0455620 115.4926860  70.3536810  53.2190510
 114.8681040  70.3496680  53.9443820 115.4056980  69.4867770  52.8226480
 114.4143940  71.2773440  60.1974280 114.7116270  72.1836270  60.1166300
 114.9629500  70.7892220  59.5833850 112.1682260  75.8559680  56.0665930
 111.9423180  75.6396850  56.9712550 111.3874790  76.2888140  55.7211900
 119.3980020  75.8623050  54.6656580 118.7988910  76.5858850  54.4820200
 119.9459630  75.7999830  53.8833030 118.0044890  74.4986590  56.6959860
 118.3974460  74.8158790  55.8828550 118.3661740  73.6198470  56.8104380
 107.0409060  71.0887390  58.9190060 106.7522110  71.6590250  59.6315040
 107.7854820  70.6091840  59.2821290 107.2279290  75.0307510  50.1292780
 107.1453960  75.9738270  50.2707770 106.8762350  74.8882420  49.2505130
 115.0277420  73.7646540  59.1963130 115.0313480  73.3236490  58.3467670
 115.9228540  74.0863870  59.3034950 110.8779800  73.6473030  58.1557340
 110.5379850  74.1248260  58.9124390 110.1157120  73.1938150  57.7958440
 115.0897570  74.7658620  52.1869890 115.2110390  74.7245100  53.1355710
 114.7046080  75.6282770  52.0316620 114.1019070  77.0759760  51.5853190
 113.5335970  76.6278010  50.9589100 114.8108070  77.4352540  51.0518340
 108.1925880  72.5692010  57.0722010 107.9072800  72.2047680  57.9100630
 108.1304740  71.8372470  56.4585150 111.6466550  81.0717950  53.8579600
 110.8728810  80.5315570  53.6978320 112.3761180  80.5524560  53.5197360
 122.4054530  80.0683310  59.6505990 123.1253650  80.5638600  59.2602100
 122.2036350  79.3901200  59.0059860 117.8664470  71.4621270  53.7935380
 117.0529080  70.9634440  53.7180690 117.6726420  72.3019520  53.3771730
 120.5812860  75.8340920  52.0897540 121.4692480  76.1458150  51.9148880
 120.5517950  74.9613170  51.6978120 111.6903950  80.7398330  57.4958410
 112.2082620  79.9366590  57.4415300 111.2387970  80.6777470  58.3375240
 116.5773450  82.0064610  52.7685710 116.9189150  82.7506840  52.2729030
 115.7486160  82.3195730  53.1310540 122.8527130  77.1452760  51.5577400
 122.7690850  77.5766980  50.7073840 123.5721320  77.6051110  51.9904220
 123.8814380  83.9995020  54.2859530 123.2390540  83.3450640  54.5603250
 123.4945040  84.4050110  53.5100200 119.4600860  81.3280450  58.1331220
 119.8124680  80.7308580  57.4732590 118.5763190  81.0024680  58.3039470
 115.5464140  82.0878140  55.5401630 116.2335270  82.6347350  55.9209220
 114.7596560  82.6318870  55.5751240 107.6856540  77.7050960  51.0318710
 108.5551390  77.9875760  51.3154630 107.1946860  78.5186830  50.9167520
 114.8491350  79.0924170  55.1526990 115.3054130  79.9029420  55.3787180
 114.4979560  78.7747310  55.9845480 110.7503130  69.4361820  55.6249510
 110.6217760  69.4279720  56.5734430 109.9265150  69.7744910  55.2740520
 122.2711760  82.8911480  50.8235880 122.0449340  82.1741920  51.4160520
 121.8807960  82.6423920  49.9857630 108.0527790  86.9178340  51.5980340
 108.4125430  87.5167680  50.9437610 107.9120130  87.4638230  52.3715370
 121.8528010  80.8083420  52.4850040 121.5649710  81.2696110  53.2727920
 122.6480180  80.3481190  52.7534260 114.0696410  84.3009540  52.4154010
 114.0606510  85.0339230  51.7998520 113.1494770  84.0541120  52.5080970
 109.6703050  79.5224430  53.1600770 109.0631000  80.2623330  53.1696070
 110.1452400  79.6123790  52.3338970 122.6097870  72.6432190  53.6445220
 121.9811030  72.7477860  52.9303450 122.1149790  72.8628970  54.4339100
 117.0556010  84.3637780  51.0779200 117.1567990  84.1601770  50.1481180
 116.1557750  84.1096060  51.2826980 114.5781900  74.9218140  55.0603100
 113.8698050  75.3904480  55.5016710 114.8626380  74.2640150  55.6948290
 118.6097330  71.6468800  56.4998890 118.4865110  71.6654930  55.5508400
 119.5581890  71.6947740  56.6197290 115.6974120  86.8824100  55.7726870
 115.9515620  86.8445490  54.8506240 114.7486600  86.7557430  55.7655120
 112.7816920  73.2303220  52.4353810 113.6307450  73.6673370  52.3694000
 112.4148190  73.5423480  53.2625870 121.7026700  77.8015980  57.3485380
 120.7616840  77.8166210  57.5233070 122.0170770  77.0151940  57.7945680
 111.6808340  79.4835580  50.9089340 112.4471610  79.3716940  51.4714770
 111.7583030  78.7873550  50.2566110 110.3755100  76.9160650  51.5922230
 110.4558690  75.9688160  51.7039630 111.2674850  77.2467530  51.6982890
 123.7052280  84.9724830  59.0239640 123.8299700  85.7956000  59.4963450
 124.5717840  84.7615560  58.6763790 111.1769810  87.0656040  58.6956770
 111.9132290  86.5171500  58.9665340 111.5610730  87.9312050  58.5562760
 108.0615290  83.1329610  54.5698280 107.1355070  83.3750750  54.5603690
 108.5271720  83.9603870  54.4483030 114.2872120  86.2386350  50.5182340
 115.0800730  86.5275180  50.0664130 113.7676470  85.8078520  49.8394820
 123.3402290  85.4656480  51.9419080 123.0543800  85.0521620  51.1273260
 123.1421840  86.3944190  51.8219600 114.8049520  81.4589760  50.3824690
 114.7000160  80.8442110  51.1086070 114.6373740  80.9355650  49.5987700
 118.0452250  80.5209790  50.9866680 117.4962350  80.9679090  51.6309420
 118.6671510  80.0159040  51.5104350 113.7127370  79.4800710  52.8831980
 114.1343790  79.3140580  53.7263370 113.8378210  78.6700940  52.3887120
 116.2255010  78.5038320  50.1309080 116.7460670  77.7887340  49.7650230
 116.8723410  79.1424190  50.4309590 112.6086270  75.5533940  49.8290140
 112.4075330  74.6901300  50.1903480 112.4378320  75.4667300  48.8911740
 120.0874580  70.3642170  52.3577020 120.3676870  69.5210070  52.7136440
 119.3140310  70.5965280  52.8715770 111.4069070  72.6534560  49.8168020
 111.7094970  72.6601990  48.9087170 112.1463660  72.3032420  50.3135680
 114.6254000  71.5969180  50.8024220 114.2776000  70.9193170  50.2226670
 114.8266770  71.1358690  51.6167610 116.7903040  86.5849930  52.4210820
 117.6853830  86.9234900  52.4429580 116.8220670  85.8629340  51.7935100
 110.4299200  81.9576980  50.6497820 110.8674070  82.5006650  51.3055400
 110.9146930  81.1323930  50.6594160 107.6445000  84.7466010  58.1018080
 107.9748010  83.8787070  57.8696720 108.0736000  84.9524530  58.9323040
 112.2406920  83.0775020  55.7620050 111.9402460  82.9539990  56.6623960
 112.1344410  82.2183610  55.3535780 125.0098840  82.8571420  50.4646730
 124.1791800  82.9248070  50.9353960 125.1870670  83.7475540  50.1613590
 124.4655300  79.6018900  52.9680930 125.2274210  80.1715550  53.0740620
 124.4809670  79.0346100  53.7389240 107.9659640  78.1256830  57.1988590
 107.3108480  77.8568470  56.5548290 108.8037590  78.0161310  56.7490570
 125.4715270  80.4569000  57.8122860 125.8424100  79.6736320  57.4058830
 126.1117200  81.1458100  57.6340160 124.5174470  79.8953270  50.1253450
 124.7923310  80.8032150  49.9972670 124.3285210  79.8315800  51.0615440
 120.9150080  72.9198120  51.4207080 121.3334960  72.7329100  50.5803740
 120.6086140  72.0677170  51.7310010 124.4139810  77.8322260  55.1182880
 124.0383410  77.0650190  54.6864170 123.6842930  78.2144960  55.6057810
 107.1797720  75.3355760  53.1413920 106.2761800  75.5985960  52.9665580
 107.6638340  75.6066930  52.3613880 123.6890770  76.0579750  58.4190120
 124.2128250  75.5642400  57.7880290 124.2750190  76.1930110  59.1637690
 109.7224930  74.3921300  51.0508300 110.4316630  73.9704520  50.5655580
 109.0064870  74.4596530  50.4191650 109.3699090  70.4460630  50.0910950
 110.0927220  70.9869570  50.4092170 109.6423610  70.1724050  49.2152490
 123.1790740  75.3153100  54.3582530 123.6749860  75.0823970  55.1431410
 122.9806810  74.4764940  53.9420170 124.6077900  73.9514050  56.8920210
 124.4977180  73.7970090  57.8302480 125.3685490  73.4234990  56.6495620
 125.4968170  71.7821970  50.1326350 126.4217480  71.6503150  49.9244640
 125.4743960  71.8614790  51.0862800 125.5706660  72.5532630  52.7583060
 124.7758160  72.4877750  53.2875970 125.7749940  73.4883270  52.7468410
 122.5125080  86.5924180  56.7521450 123.1084150  86.2708750  56.0755870
 122.7703230  86.1196000  57.5434720 113.4933010  85.5507720  59.7567310
 114.0098030  84.9395080  59.2315570 114.1430390  86.0536500  60.2478320
 122.0026590  70.8829510  59.2081890 122.4434680  70.8274610  58.3603490
 121.7334180  71.7987520  59.2792070 123.8665160  70.5144750  57.2190710
 123.8053560  69.5705970  57.0721730 124.6457190  70.6224840  57.7644170
 108.1717910  86.6537110  56.1814660 108.0039950  86.0207790  56.8796550
 107.3052420  86.8596510  55.8308850 108.7945930  70.4853890  53.6846520
 109.5525290  70.5982770  53.1110550 108.3323100  71.3223090  53.6389950
 115.3359740  72.5993160  56.6748830 114.5234250  72.2250050  56.3344710
 115.8401380  71.8438240  56.9770020 119.8384720  69.2635610  57.9131900
 120.4414090  69.8355820  58.3880420 119.0977710  69.8275050  57.6905800
 122.9819320  69.6657170  53.1872180 123.1769950  70.5640620  53.4539610
 122.1949190  69.4344250  53.6805130 109.7780610  85.3470340  53.6264800
 109.2528230  85.7278370  52.9226760 109.7025190  85.9721110  54.3474510
 111.1671080  71.0117940  52.2248490 111.6963840  70.2247740  52.0956440
 111.7999400  71.6909130  52.4584020 113.3608920  70.7493080  55.2793880
 112.7311660  70.0480390  55.4464010 112.8214060  71.5097210  55.0627040
 124.5345930  86.9057880  54.9478740 124.7098120  86.2195620  54.3039660
 123.8367500  87.4304930  54.5555410 112.3773580  87.2952720  52.5014050
 113.1092400  87.0112000  51.9537940 112.6367250  87.0566000  53.3913430
 111.5388370  83.4117450  52.5060380 110.9097250  83.8802550  53.0546210
 111.6536200  82.5666670  52.9406570 118.9938090  77.4623110  38.6561580
 118.9132140  76.5477720  38.3853290 118.5802510  77.9590180  37.9501290
 117.1256130  79.2402130  40.5370850 116.3498230  78.7602570  40.8269420
 117.7769060  78.5607780  40.3627010 111.1421960  79.5521940  41.4146610
 110.3106840  79.2970650  41.8143120 111.7502940  79.6232710  42.1504530
 121.1463560  83.6462320  39.3169980 120.6845090  82.8749560  39.6457150
 121.9589110  83.6728390  39.8222430 111.1223220  83.5862030  41.6104630
 111.4251260  82.6959770  41.4314850 111.8666810  84.1432250  41.3826880
 109.5513910  74.5123830  35.1989000 108.6630610  74.8539800  35.0968880
 109.8355100  74.3124150  34.3069830 107.5146920  77.1129480  41.0828700
 108.0863030  76.3451680  41.0832340 107.5148460  77.4118240  40.1735310
 117.3726870  85.9320330  38.9373970 116.7538310  86.3877830  38.3668410
 118.2278650  86.0871790  38.5363670 116.5665120  81.9159320  40.5441010
 116.4973400  80.9749260  40.3830140 117.3284980  82.0060730  41.1163580
 108.7571790  72.5213840  42.8697630 108.5774630  71.6239590  43.1500390
 108.3551870  73.0685710  43.5444580 117.5970290  74.7229700  40.7709940
 117.9735110  73.8501580  40.6583610 117.4989800  75.0588400  39.8800380
 111.7275300  73.0955330  36.2327380 111.8342050  73.9959060  36.5396140
 110.8167660  73.0473300  35.9422030 121.3794410  72.2180140  37.7038280
 122.2004030  71.7276710  37.7463760 121.4128490  72.8077800  38.4570120
 109.3758460  75.0174340  41.4779970 110.0568570  75.2812710  42.0967370
 109.0606510  74.1775210  41.8117980 113.5683030  76.0641700  40.5652560
 114.0761250  76.5622670  41.2057580 114.0996270  75.2876900  40.3891920
 125.6693960  74.2346890  44.2681910 124.9646130  74.6228600  43.7497020
 125.9351880  74.9297180  44.8702840 111.8519130  70.7040260  44.8315980
 111.8537570  71.2212650  44.0261880 111.0223440  70.2270440  44.8085910
 118.2390220  80.8159570  36.3305880 117.6207490  81.2809020  35.7668600
 118.7513470  81.5087050  36.7475390 113.1021980  80.3435440  43.0089480
 112.7691360  80.9704360  43.6510550 113.2788660  80.8697320  42.2291150
 121.6155890  74.1580520  40.4765820 120.9111460  74.4465410  41.0568930
 121.9768050  74.9680630  40.1165380 111.5334460  72.4150220  42.8386430
 111.8751270  73.2592270  42.5440300 110.5950270  72.5633960  42.9551770
 112.3141080  82.3116240  44.8238660 112.9315080  82.9867320  44.5423110
 111.4534200  82.7204220  44.7326160 107.6073420  81.5016100  33.7045510
 107.2301400  81.9903200  32.9730410 107.8646490  82.1741380  34.3352040
 123.2318670  83.7755650  42.7393300 122.5482190  84.4454760  42.7309970
 123.7712960  83.9736300  41.9738160 124.6842810  73.6035310  40.8675030
 123.7367720  73.6374290  40.9990460 125.0092800  74.4174260  41.2524390
 115.2162350  69.9032490  39.1631020 115.5237330  69.3479380  38.4466520
 114.2863050  70.0376950  38.9804010 120.7677410  85.6199780  41.4538480
 120.7804570  85.2162070  40.5860740 120.2152630  86.3947070  41.3499910
 122.0622830  82.3416000  36.5428650 121.9519160  81.3990330  36.6678070
 122.0591080  82.7031640  37.4291410 120.1662850  80.5229620  42.7821090
 120.5831640  80.3089730  41.9474550 120.8902670  80.7802410  43.3529710
 117.6043110  77.9681320  35.8991140 116.6772390  77.9018700  36.1279610
 117.7567930  78.9061450  35.7846380 117.5912190  74.2398320  32.8958300
 116.6515860  74.4012280  32.9810760 117.9095450  74.9584000  32.3494290
 124.1124950  78.9216840  42.8737330 123.2843580  78.9909930  42.3987460
 124.7075430  79.5071150  42.4053160 121.6340400  79.5301620  36.4026390
 121.0152820  79.1921170  35.7552690 121.6164850  78.8861380  37.1105580
 121.0766960  75.7086160  43.8192200 120.6638140  76.5339870  44.0732190
 120.3442910  75.1231200  43.6268560 113.2099750  78.4946060  38.6810870
 112.8056750  77.7823310  38.1856770 113.2962870  78.1499300  39.5698910
 113.6781450  82.1813620  40.8450080 113.3809740  81.5759090  40.1657860
 114.6281270  82.2190930  40.7339440 111.9228370  75.2689270  42.4609910
 112.4742960  75.3784610  41.6863160 112.4371880  75.6426870  43.1765140
 121.7667060  85.7545490  44.5073180 121.2897620  86.5617680  44.3145790
 121.0828850  85.1023820  44.6599390 112.7699880  81.9195310  47.4957880
 111.8728410  82.1435280  47.7431280 112.7952750  82.0430250  46.5469280
 119.8105100  78.7688430  33.4099140 120.2498380  77.9310860  33.2636960
 120.5233520  79.4017830  33.4963280 111.5971100  78.7908630  46.0715250
 111.4578870  79.6631430  46.4402650 110.7152460  78.4481440  45.9263190
 117.9200480  83.7084500  37.3780380 118.3596390  84.4508830  36.9635770
 117.8587370  83.9511070  38.3019340 113.3951450  84.7330330  48.2800400
 113.3666880  85.1373280  47.4128830 113.2316420  83.8040690  48.1172000
 123.3922240  70.0231240  31.7240180 123.0794900  70.1158070  32.6239250
 124.1534710  70.6012270  31.6737610 109.9104380  77.3891040  36.1817520
 109.7901980  78.1153130  35.5698790 109.6005270  76.6193950  35.7045430
 125.3466270  85.5157430  49.5764570 125.8225990  85.9940320  50.2553650
 125.9673430  85.4474920  48.8510070 107.5489750  80.5606180  41.9886160
 107.6270170  80.6954950  41.0441880 108.1631430  79.8522070  42.1814280
 108.7937380  82.2606370  38.3992340 108.3865460  82.4020960  37.5445940
 109.6850390  81.9766530  38.1963550 124.7499520  82.7070280  46.7364580
 124.8762580  82.4682160  45.8181760 124.7920900  81.8754820  47.2086660
 118.6116260  86.4098280  45.3059390 119.1260930  86.3206290  46.1081820
 117.7685340  86.7557980  45.5987300 120.5870660  86.6953620  34.7343390
 120.4271800  86.4056560  35.6325220 120.4217370  85.9193750  34.1988620
 113.0659040  86.4752150  36.5115010 112.8901520  85.5587690  36.2982810
 112.2114780  86.8339440  36.7512810 120.2896790  84.2041180  33.2941390
 119.5961950  84.2018470  32.6343670 121.0319650  83.7800500  32.8635560
 119.8546720  85.8303890  37.3689880 120.3103670  85.0493270  37.6828500
 120.1939240  86.5410710  37.9131060 124.6023530  74.7602740  47.7014320
 123.9867800  75.2682410  47.1729780 124.2819950  73.8601070  47.6440260
 107.6049270  81.6020350  44.5280620 107.7680310  81.1325710  43.7099990
 108.0701720  81.0943910  45.1929460 112.3768040  70.7326110  39.5641190
 111.9336190  71.5135650  39.2325710 112.9353030  71.0556000  40.2712130
 116.6637850  73.5994630  45.1676510 116.2017220  73.8077650  45.9796450
 116.2615960  72.7853980  44.8647180 121.6642360  74.8203580  46.2973170
 120.8135950  74.5209330  46.6182240 121.5044150  75.0645590  45.3856990
 118.7592070  76.3205330  48.3971960 119.0845480  75.4869080  48.0574190
 119.5472400  76.8433850  48.5450290 115.4926860  70.3536810  34.4447020
 114.8681040  70.3496680  35.1700330 115.4056980  69.4867770  34.0482990
 114.4143940  71.2773440  41.4230790 114.7116270  72.1836270  41.3422810
 114.9629500  70.7892220  40.8090360 112.1682260  75.8559680  37.2922440
 111.9423180  75.6396850  38.1969060 111.3874790  76.2888140  36.9468410
 119.3980020  75.8623050  35.8913090 118.7988910  76.5858850  35.7076710
 119.9459630  75.7999830  35.1089540 114.6081470  76.7545260  47.9582710
 114.5125070  75.8139990  47.8083110 115.4513450  76.9760330  47.5630780
 118.0044890  74.4986590  37.9216370 118.3974460  74.8158790  37.1085060
 118.3661740  73.6198470  38.0360890 109.7392010  73.1658930  46.1116490
 109.3455400  74.0134140  46.3189270 109.0510410  72.5285300  46.3025130
 116.3137060  73.2493900  49.1813230 115.6235380  73.0566100  49.8159320
 117.0569360  73.5328540  49.7137530 107.0409060  71.0887390  40.1446570
 106.7522110  71.6590250  40.8571550 107.7854820  70.6091840  40.5077800
 107.2279290  75.0307510  31.3549290 107.1453960  75.9738270  31.4964280
 106.8762350  74.8882420  30.4761640 118.5900030  77.0892340  42.0167150
 117.8581150  77.5979150  42.3657250 118.1924370  76.2722320  41.7155930
 115.0277420  73.7646540  40.4219640 115.0313480  73.3236490  39.5724180
 115.9228540  74.0863870  40.5291460 110.8779800  73.6473030  39.3813850
 110.5379850  74.1248260  40.1380900 110.1157120  73.1938150  39.0214950
 115.0897570  74.7658620  33.4126400 115.2110390  74.7245100  34.3612220
 114.7046080  75.6282770  33.2573130 119.0525940  72.5426020  41.4290090
 119.0698680  72.9934670  42.2731940 118.8041520  71.6431660  41.6423530
 114.1019070  77.0759760  32.8109700 113.5335970  76.6278010  32.1845610
 114.8108070  77.4352540  32.2774850 122.4796690  69.9558200  47.2676470
 122.8042460  69.2247860  47.7934450 122.5153200  69.6371840  46.3657460
 109.1788250  80.9771780  46.6876430 108.7943040  80.3365450  47.2859390
 109.4900440  81.6807900  47.2571160 115.3285390  77.8248320  42.1685050
 115.6955520  77.3506890  42.9146390 115.1390450  78.6989890  42.5093390
 108.1925880  72.5692010  38.2978520 107.9072800  72.2047680  39.1357140
 108.1304740  71.8372470  37.6841660 113.1184760  76.8656960  44.4869260
 112.8141830  77.7448940  44.7119620 114.0731220  76.9256750  44.5226700
 111.6466550  81.0717950  35.0836110 110.8728810  80.5315570  34.9234830
 112.3761180  80.5524560  34.7453870 122.4054530  80.0683310  40.8762500
 123.1253650  80.5638600  40.4858610 122.2036350  79.3901200  40.2316370
 117.8664470  71.4621270  35.0191890 117.0529080  70.9634440  34.9437200
 117.6726420  72.3019520  34.6028240 117.7873330  80.1392370  46.7631500
 117.7210640  79.2188040  46.5089090 117.1578470  80.2367810  47.4776140
 120.5812860  75.8340920  33.3154050 121.4692480  76.1458150  33.1405390
 120.5517950  74.9613170  32.9234630 111.6903950  80.7398330  38.7214920
 112.2082620  79.9366590  38.6671810 111.2387970  80.6777470  39.5631750
 116.5773450  82.0064610  33.9942220 116.9189150  82.7506840  33.4985540
 115.7486160  82.3195730  34.3567050 109.1748490  77.7059700  45.6340620
 108.8163430  78.3713550  46.2213960 108.8803050  76.8743250  46.0053240
 112.3761610  78.1643940  48.5180170 112.0761750  78.3101120  47.6207990
 113.1472850  77.6049230  48.4253560 117.7190060  82.9612940  46.5135300
 117.7334600  82.0293900  46.2954210 117.0115160  83.0472700  47.1525070
 122.8527130  77.1452760  32.7833910 122.7690850  77.5766980  31.9330350
 123.5721320  77.6051110  33.2160730 123.9301270  79.6020280  45.8603880
 123.2049460  80.1949060  45.6633270 124.4576730  79.5943820  45.0617250
 123.8814380  83.9995020  35.5116040 123.2390540  83.3450640  35.7859760
 123.4945040  84.4050110  34.7356710 119.4600860  81.3280450  39.3587730
 119.8124680  80.7308580  38.6989100 118.5763190  81.0024680  39.5295980
 115.5464140  82.0878140  36.7658140 116.2335270  82.6347350  37.1465730
 114.7596560  82.6318870  36.8007750 107.6856540  77.7050960  32.2575220
 108.5551390  77.9875760  32.5411140 107.1946860  78.5186830  32.1424030
 114.8491350  79.0924170  36.3783500 115.3054130  79.9029420  36.6043690
 114.4979560  78.7747310  37.2101990 117.1523960  84.6030510  43.6075800
 117.7966180  84.8089890  44.2849220 117.5153400  83.8418910  43.1546650
 110.7503130  69.4361820  36.8506020 110.6217760  69.4279720  37.7990940
 109.9265150  69.7744910  36.4997030 118.4256040  82.6062860  42.3253250
 119.0678270  81.9056020  42.4385420 118.9505390  83.3861300  42.1450140
 122.2711760  82.8911480  32.0492390 122.0449340  82.1741920  32.6417030
 121.8807960  82.6423920  31.2114140 120.1993660  83.4057760  45.5289310
 120.5349900  83.9924450  46.2067230 119.2794000  83.2750470  45.7587100
 108.0527790  86.9178340  32.8236850 108.4125430  87.5167680  32.1694120
 107.9120130  87.4638230  33.5971880 107.7497060  71.1952940  46.3112720
 107.0355580  71.3949860  46.9165330 108.1692100  70.4192510  46.6827520
 121.8528010  80.8083420  33.7106550 121.5649710  81.2696110  34.4984430
 122.6480180  80.3481190  33.9790770 108.0369650  85.1833200  47.2979250
 108.1460770  84.2427940  47.1574640 107.3850210  85.4487950  46.6492980
 116.0282240  83.4549090  48.6977370 115.7079110  82.7358330  49.2423060
 115.3540600  84.1304160  48.7713430 114.0696410  84.3009540  33.6410520
 114.0606510  85.0339230  33.0255030 113.1494770  84.0541120  33.7337480
 109.6703050  79.5224430  34.3857280 109.0631000  80.2623330  34.3952580
 110.1452400  79.6123790  33.5595480 119.2435840  73.6875250  44.0614170
 119.6116660  72.8670460  44.3893740 118.3834040  73.7477140  44.4769820
 122.6097870  72.6432190  34.8701730 121.9811030  72.7477860  34.1559960
 122.1149790  72.8628970  35.6595610 117.0556010  84.3637780  32.3035710
 117.1567990  84.1601770  31.3737690 116.1557750  84.1096060  32.5083490
 114.5781900  74.9218140  36.2859610 113.8698050  75.3904480  36.7273220
 114.8626380  74.2640150  36.9204800 116.2037830  76.3414840  44.2852140
 116.7023080  76.8160660  44.9503990 116.3460780  75.4178360  44.4922170
 118.6097330  71.6468800  37.7255400 118.4865110  71.6654930  36.7764910
 119.5581890  71.6947740  37.8453800 115.6974120  86.8824100  36.9983380
 115.9515620  86.8445490  36.0762750 114.7486600  86.7557430  36.9911630
 112.7816920  73.2303220  33.6610320 113.6307450  73.6673370  33.5950510
 112.4148190  73.5423480  34.4882380 123.4104690  72.5582800  45.1280530
 122.9078290  73.2988200  45.4674340 124.2261350  72.9466800  44.8117320
 121.7026700  77.8015980  38.5741890 120.7616840  77.8166210  38.7489580
 122.0170770  77.0151940  39.0202190 111.6808340  79.4835580  32.1345850
 112.4471610  79.3716940  32.6971280 111.7583030  78.7873550  31.4822620
 110.3755100  76.9160650  32.8178740 110.4558690  75.9688160  32.9296140
 111.2674850  77.2467530  32.9239400 123.7052280  84.9724830  40.2496150
 123.8299700  85.7956000  40.7219960 124.5717840  84.7615560  39.9020300
 111.1769810  87.0656040  39.9213280 111.9132290  86.5171500  40.1921850
 111.5610730  87.9312050  39.7819270 108.0615290  83.1329610  35.7954790
 107.1355070  83.3750750  35.7860200 108.5271720  83.9603870  35.6739540
 110.1828090  86.2502110  49.1098860 110.9840820  86.5714160  49.5234260
 109.6679910  85.8897690  49.8318770 114.2872120  86.2386350  31.7438850
 115.0800730  86.5275180  31.2920640 113.7676470  85.8078520  31.0651330
 119.0192720  82.3581980  49.0574270 118.4130880  82.3813580  48.3170020
 118.7146830  81.6265020  49.5941520 120.4493090  86.0862270  47.6683680
 121.4014840  86.0020290  47.6183920 120.3021310  86.7503980  48.3417470
 123.3402290  85.4656480  33.1675590 123.0543800  85.0521620  32.3529770
 123.1421840  86.3944190  33.0476110 107.9025900  78.7375570  48.0534910
 108.4064920  78.1582850  48.6251140 107.1633320  79.0215800  48.5911280
 114.8049520  81.4589760  31.6081200 114.7000160  80.8442110  32.3342580
 114.6373740  80.9355650  30.8244210 114.9563840  80.1446560  47.5870430
 114.1909510  80.7131560  47.5025100 115.1379800  79.8522770  46.6938660
 118.0452250  80.5209790  32.2123190 117.4962350  80.9679090  32.8565930
 118.6671510  80.0159040  32.7360860 122.0987190  81.8751890  48.1445450
 122.8396660  82.2127650  47.6412910 121.3359870  82.0443950  47.5915220
 109.9348980  76.8805160  48.9484980 109.9754320  76.5819030  49.8570210
 110.7894480  77.2812770  48.7892500 113.7127370  79.4800710  34.1088490
 114.1343790  79.3140580  34.9519880 113.8378210  78.6700940  33.6143630
 111.8754790  75.4597260  46.9159470 111.3451250  74.9688210  46.2882810
 112.5442860  75.8881460  46.3817400 116.2255010  78.5038320  31.3565590
 116.7460670  77.7887340  30.9906740 116.8723410  79.1424190  31.6566100
 120.7732850  79.9266720  46.6800660 121.1873870  80.0811800  47.5291080
 119.8383850  80.0521940  46.8426440 121.2455020  77.2662880  48.6839810
 121.8275790  76.5115200  48.5960290 121.4216790  77.7970320  47.9071290
 112.3627090  72.4259630  46.9956760 112.2683960  71.8080380  46.2707630
 111.7824480  73.1525920  46.7686670 115.1288530  70.9832870  44.0284150
 114.6805830  71.0057130  43.1829700 114.4953730  70.5851890  44.6254450
 115.5348080  79.8787200  44.6496590 115.9536190  80.7219930  44.4772830
 114.6156710  80.0159240  44.4203370 117.8711980  77.6103380  46.0334430
 117.9908190  77.0144520  46.7729270 118.7305980  77.6473070  45.6135730
 120.2099880  78.1640570  44.6096940 119.6835100  78.6883190  44.0062080
 120.5531220  78.7967960  45.2406670 112.6086270  75.5533940  31.0546650
 112.4075330  74.6901300  31.4159990 112.4378320  75.4667300  30.1168250
 113.3855500  86.1840210  45.7654320 112.8476590  86.9086270  45.4463020
 113.6389460  85.7070550  44.9751660 114.6380750  74.1524730  47.2910250
 115.2280440  73.8440580  47.9788070 113.8200990  73.6804480  47.4470150
 119.4574180  73.7690540  47.5243270 118.7689700  73.1072080  47.4593260
 120.1780200  73.3228810  47.9691730 120.0874580  70.3642170  33.5833530
 120.3676870  69.5210070  33.9392950 119.3140310  70.5965280  34.0972280
 111.4069070  72.6534560  31.0424530 111.7094970  72.6601990  30.1343680
 112.1463660  72.3032420  31.5392190 116.2417710  87.4191420  46.0240970
 116.1676410  88.3226560  46.3313340 115.3396550  87.1003320  45.9963040
 114.6254000  71.5969180  32.0280730 114.2776000  70.9193170  31.4483180
 114.8266770  71.1358690  32.8424120 116.7903040  86.5849930  33.6467330
 117.6853830  86.9234900  33.6686090 116.8220670  85.8629340  33.0191610
 110.4299200  81.9576980  31.8754330 110.8674070  82.5006650  32.5311910
 110.9146930  81.1323930  31.8850670 107.6445000  84.7466010  39.3274590
 107.9748010  83.8787070  39.0953230 108.0736000  84.9524530  40.1579550
 112.2406920  83.0775020  36.9876560 111.9402460  82.9539990  37.8880470
 112.1344410  82.2183610  36.5792290 108.1335210  85.6136600  42.0656220
 107.6966200  85.7937400  42.8980370 108.7012890  86.3711220  41.9237940
 123.7697390  85.1153600  46.3533530 123.1699380  85.1746160  45.6097450
 123.8991290  84.1758580  46.4830380 125.0098840  82.8571420  31.6903240
 124.1791800  82.9248070  32.1610470 125.1870670  83.7475540  31.3870100
 124.4655300  79.6018900  34.1937440 125.2274210  80.1715550  34.2997130
 124.4809670  79.0346100  34.9645750 107.9659640  78.1256830  38.4245100
 107.3108480  77.8568470  37.7804800 108.8037590  78.0161310  37.9747080
 125.4715270  80.4569000  39.0379370 125.8424100  79.6736320  38.6315340
 126.1117200  81.1458100  38.8596670 122.4549030  81.8405580  44.4509690
 121.6408870  82.2702740  44.7135480 122.8623230  82.4523990  43.8378740
 124.5174470  79.8953270  31.3509960 124.7923310  80.8032150  31.2229180
 124.3285210  79.8315800  32.2871950 120.9150080  72.9198120  32.6463590
 121.3334960  72.7329100  31.8060250 120.6086140  72.0677170  32.9566520
 124.4139810  77.8322260  36.3439390 124.0383410  77.0650190  35.9120680
 123.6842930  78.2144960  36.8314320 109.0035570  78.5109400  42.9648440
 109.3708610  78.4236800  43.8444460 108.4346390  77.7475950  42.8655300
 123.8039430  76.9793780  45.9778910 123.5725520  76.7506530  45.0776860
 124.0643980  77.8993330  45.9323800 108.5551570  75.4218490  46.8706860
 107.6607620  75.3885250  47.2100570 109.0949120  75.6205280  47.6358110
 122.2427500  72.2050210  48.7558610 123.1197680  72.2133610  49.1392610
 122.2548340  71.4681050  48.1450960 107.1797720  75.3355760  34.3670430
 106.2761800  75.5985960  34.1922090 107.6638340  75.6066930  33.5870390
 123.6890770  76.0579750  39.6446630 124.2128250  75.5642400  39.0136800
 124.2750190  76.1930110  40.3894200 123.8680490  76.1419620  43.1666180
 122.9183200  76.1083160  43.2811170 124.0493500  77.0519730  42.9315950
 109.7224930  74.3921300  32.2764810 110.4316630  73.9704520  31.7912090
 109.0064870  74.4596530  31.6448160 109.3699090  70.4460630  31.3167460
 110.0927220  70.9869570  31.6348680 109.6423610  70.1724050  30.4409000
 123.1790740  75.3153100  35.5839040 123.6749860  75.0823970  36.3687920
 122.9806810  74.4764940  35.1676680 109.0591280  69.6966820  41.2190080
 109.7067470  69.1464200  40.7785240 109.4793120  69.9509970  42.0405890
 124.6077900  73.9514050  38.1176720 124.4977180  73.7970090  39.0558990
 125.3685490  73.4234990  37.8752130 122.9543620  69.8908180  44.5759720
 123.5915840  70.5042320  44.9418910 123.1018510  69.9268840  43.6308950
 125.4968170  71.7821970  31.3582860 126.4217480  71.6503150  31.1501150
 125.4743960  71.8614790  32.3119310 125.5706660  72.5532630  33.9839570
 124.7758160  72.4877750  34.5132480 125.7749940  73.4883270  33.9724920
 122.5125080  86.5924180  37.9777960 123.1084150  86.2708750  37.3012380
 122.7703230  86.1196000  38.7691230 108.8123280  69.8522490  43.9615400
 108.4638100  70.3086310  44.7273580 108.4810980  68.9579620  44.0437830
 110.4187650  83.0242090  48.1268590 110.3757280  82.6535000  49.0083050
 110.5498660  83.9619660  48.2670410 114.1193680  84.5801680  43.7278310
 113.8785040  84.8476240  42.8408830 115.0596320  84.7507410  43.7829170
 116.3248100  71.0434370  47.4834820 116.2636990  71.6356200  48.2330230
 117.2648480  70.9360330  47.3385080 118.9622660  70.7004430  47.1227110
 119.5763070  71.0183720  46.4608190 119.5072220  70.2153020  47.7422970
 125.3797840  86.5996060  44.5288950 124.8856120  86.9964930  43.8116080
 124.7711130  85.9745270  44.9226230 109.4843920  69.3798690  47.2366170
 110.0326910  69.1986740  46.4732280 109.5499230  68.5892800  47.7722480
 110.2575680  85.9704340  45.2466370 109.6636000  85.8389040  45.9856410
 110.2499520  85.1342480  44.7808470 119.7030700  69.2636570  43.4496400
 118.8290540  69.5971680  43.2469330 119.5941450  68.7909750  44.2748270
 120.6102680  71.4707440  44.8338120 120.2816040  70.6559200  44.4539850
 121.5584980  71.4277250  44.7103810 123.0637290  87.2419480  41.8075690
 122.6040260  87.9935290  41.4333710 122.4349750  86.5225950  41.7490490
 109.8887910  83.3362720  44.1974410 109.1621970  82.7168010  44.1300360
 109.9497060  83.7303330  43.3272490 113.4933010  85.5507720  40.9823820
 114.0098030  84.9395080  40.4572080 114.1430390  86.0536500  41.4734830
 116.2328510  86.4416210  41.8092800 116.5206320  86.1870510  40.9325810
 116.7451730  85.8893570  42.3998370 117.4505520  70.1806410  42.3889310
 116.6677310  70.6551910  42.6686070 117.1568450  69.2761240  42.2802490
 122.0026590  70.8829510  40.4338400 122.4434680  70.8274610  39.5860000
 121.7334180  71.7987520  40.5048580 123.8665160  70.5144750  38.4447220
 123.8053560  69.5705970  38.2978240 124.6457190  70.6224840  38.9900680
 108.1717910  86.6537110  37.4071170 108.0039950  86.0207790  38.1053060
 107.3052420  86.8596510  37.0565360 108.7945930  70.4853890  34.9103030
 109.5525290  70.5982770  34.3367060 108.3323100  71.3223090  34.8646460
 115.3359740  72.5993160  37.9005340 114.5234250  72.2250050  37.5601220
 115.8401380  71.8438240  38.2026530 119.8384720  69.2635610  39.1388410
 120.4414090  69.8355820  39.6136930 119.0977710  69.8275050  38.9162310
 122.9819320  69.6657170  34.4128690 123.1769950  70.5640620  34.6796120
 122.1949190  69.4344250  34.9061640 109.7780610  85.3470340  34.8521310
 109.2528230  85.7278370  34.1483270 109.7025190  85.9721110  35.5731020
 111.1671080  71.0117940  33.4505000 111.6963840  70.2247740  33.3212950
 111.7999400  71.6909130  33.6840530 113.3608920  70.7493080  36.5050390
 112.7311660  70.0480390  36.6720520 112.8214060  71.5097210  36.2883550
 116.3000870  87.3632310  49.1761000 117.2268180  87.1276580  49.2196960
 116.2851300  88.1904310  48.6947030 124.5345930  86.9057880  36.1735250
 124.7098120  86.2195620  35.5296170 123.8367500  87.4304930  35.7811920
 113.4864480  70.0277060  48.9402880 113.2048750  70.5310660  48.1763700
 113.8684180  69.2298810  48.5745010 112.3773580  87.2952720  33.7270560
 113.1092400  87.0112000  33.1794450 112.6367250  87.0566000  34.6169940
 111.5388370  83.4117450  33.7316890 110.9097250  83.8802550  34.2802720
 111.6536200  82.5666670  34.1663080 120.0879940  69.4430640  49.5183350
 119.9745390  69.7625250  50.4134870 120.9049680  69.8443150  49.2220630
 122.8678430  86.5902170  49.0002040 123.6603750  86.0951400  48.7928000
 123.1611580  87.2692310  49.6077650 118.9938090  77.4623110  19.8818090
 118.9132140  76.5477720  19.6109800 118.5802510  77.9590180  19.1757800
 117.1256130  79.2402130  21.7627360 116.3498230  78.7602570  22.0525930
 117.7769060  78.5607780  21.5883520 111.1421960  79.5521940  22.6403120
 110.3106840  79.2970650  23.0399630 111.7502940  79.6232710  23.3761040
 121.1463560  83.6462320  20.5426490 120.6845090  82.8749560  20.8713660
 121.9589110  83.6728390  21.0478940 111.1223220  83.5862030  22.8361140
 111.4251260  82.6959770  22.6571360 111.8666810  84.1432250  22.6083390
 109.5513910  74.5123830  16.4245510 108.6630610  74.8539800  16.3225390
 109.8355100  74.3124150  15.5326340 107.5146920  77.1129480  22.3085210
 108.0863030  76.3451680  22.3088850 107.5148460  77.4118240  21.3991820
 117.3726870  85.9320330  20.1630480 116.7538310  86.3877830  19.5924920
 118.2278650  86.0871790  19.7620180 116.5665120  81.9159320  21.7697520
 116.4973400  80.9749260  21.6086650 117.3284980  82.0060730  22.3420090
 108.7571790  72.5213840  24.0954140 108.5774630  71.6239590  24.3756900
 108.3551870  73.0685710  24.7701090 117.5970290  74.7229700  21.9966450
 117.9735110  73.8501580  21.8840120 117.4989800  75.0588400  21.1056890
 111.7275300  73.0955330  17.4583890 111.8342050  73.9959060  17.7652650
 110.8167660  73.0473300  17.1678540 121.3794410  72.2180140  18.9294790
 122.2004030  71.7276710  18.9720270 121.4128490  72.8077800  19.6826630
 109.3758460  75.0174340  22.7036480 110.0568570  75.2812710  23.3223880
 109.0606510  74.1775210  23.0374490 125.6693960  74.2346890  25.4938420
 124.9646130  74.6228600  24.9753530 125.9351880  74.9297180  26.0959350
 111.8519130  70.7040260  26.0572490 111.8537570  71.2212650  25.2518390
 111.0223440  70.2270440  26.0342420 118.2390220  80.8159570  17.5562390
 117.6207490  81.2809020  16.9925110 118.7513470  81.5087050  17.9731900
 113.1021980  80.3435440  24.2345990 112.7691360  80.9704360  24.8767060
 113.2788660  80.8697320  23.4547660 121.6155890  74.1580520  21.7022330
 120.9111460  74.4465410  22.2825440 121.9768050  74.9680630  21.3421890
 111.5334460  72.4150220  24.0642940 111.8751270  73.2592270  23.7696810
 110.5950270  72.5633960  24.1808280 112.3141080  82.3116240  26.0495170
 112.9315080  82.9867320  25.7679620 111.4534200  82.7204220  25.9582670
 107.6073420  81.5016100  14.9302020 107.2301400  81.9903200  14.1986920
 107.8646490  82.1741380  15.5608550 123.2318670  83.7755650  23.9649810
 122.5482190  84.4454760  23.9566480 123.7712960  83.9736300  23.1994670
 124.6842810  73.6035310  22.0931540 123.7367720  73.6374290  22.2246970
 125.0092800  74.4174260  22.4780900 115.2162350  69.9032490  20.3887530
 115.5237330  69.3479380  19.6723030 114.2863050  70.0376950  20.2060520
 120.7677410  85.6199780  22.6794990 120.7804570  85.2162070  21.8117250
 120.2152630  86.3947070  22.5756420 122.0622830  82.3416000  17.7685160
 121.9519160  81.3990330  17.8934580 122.0591080  82.7031640  18.6547920
 120.1662850  80.5229620  24.0077600 120.5831640  80.3089730  23.1731060
 120.8902670  80.7802410  24.5786220 117.6043110  77.9681320  17.1247650
 116.6772390  77.9018700  17.3536120 117.7567930  78.9061450  17.0102890
 117.5912190  74.2398320  14.1214810 116.6515860  74.4012280  14.2067270
 117.9095450  74.9584000  13.5750800 124.1124950  78.9216840  24.0993840
 123.2843580  78.9909930  23.6243970 124.7075430  79.5071150  23.6309670
 121.6340400  79.5301620  17.6282900 121.0152820  79.1921170  16.9809200
 121.6164850  78.8861380  18.3362090 121.0766960  75.7086160  25.0448710
 120.6638140  76.5339870  25.2988700 120.3442910  75.1231200  24.8525070
 113.2099750  78.4946060  19.9067380 112.8056750  77.7823310  19.4113280
 113.2962870  78.1499300  20.7955420 113.6781450  82.1813620  22.0706590
 113.3809740  81.5759090  21.3914370 114.6281270  82.2190930  21.9595950
 111.9228370  75.2689270  23.6866420 112.4742960  75.3784610  22.9119670
 112.4371880  75.6426870  24.4021650 121.7667060  85.7545490  25.7329690
 121.2897620  86.5617680  25.5402300 121.0828850  85.1023820  25.8855900
 112.7699880  81.9195310  28.7214390 111.8728410  82.1435280  28.9687790
 112.7952750  82.0430250  27.7725790 119.8105100  78.7688430  14.6355650
 120.2498380  77.9310860  14.4893470 120.5233520  79.4017830  14.7219790
 111.5971100  78.7908630  27.2971760 111.4578870  79.6631430  27.6659160
 110.7152460  78.4481440  27.1519700 117.9200480  83.7084500  18.6036890
 118.3596390  84.4508830  18.1892280 117.8587370  83.9511070  19.5275850
 113.3951450  84.7330330  29.5056910 113.3666880  85.1373280  28.6385340
 113.2316420  83.8040690  29.3428510 123.3922240  70.0231240  12.9496690
 123.0794900  70.1158070  13.8495760 124.1534710  70.6012270  12.8994120
 109.9104380  77.3891040  17.4074030 109.7901980  78.1153130  16.7955300
 109.6005270  76.6193950  16.9301940 125.3466270  85.5157430  30.8021080
 125.8225990  85.9940320  31.4810160 125.9673430  85.4474920  30.0766580
 107.5489750  80.5606180  23.2142670 107.6270170  80.6954950  22.2698390
 108.1631430  79.8522070  23.4070790 108.7937380  82.2606370  19.6248850
 108.3865460  82.4020960  18.7702450 109.6850390  81.9766530  19.4220060
 124.7499520  82.7070280  27.9621090 124.8762580  82.4682160  27.0438270
 124.7920900  81.8754820  28.4343170 118.6116260  86.4098280  26.5315900
 119.1260930  86.3206290  27.3338330 117.7685340  86.7557980  26.8243810
 120.5870660  86.6953620  15.9599900 120.4271800  86.4056560  16.8581730
 120.4217370  85.9193750  15.4245130 113.0659040  86.4752150  17.7371520
 112.8901520  85.5587690  17.5239320 112.2114780  86.8339440  17.9769320
 120.2896790  84.2041180  14.5197900 119.5961950  84.2018470  13.8600180
 121.0319650  83.7800500  14.0892070 119.8546720  85.8303890  18.5946390
 120.3103670  85.0493270  18.9085010 120.1939240  86.5410710  19.1387570
 124.6023530  74.7602740  28.9270830 123.9867800  75.2682410  28.3986290
 124.2819950  73.8601070  28.8696770 107.6049270  81.6020350  25.7537130
 107.7680310  81.1325710  24.9356500 108.0701720  81.0943910  26.4185970
 112.3768040  70.7326110  20.7897700 111.9336190  71.5135650  20.4582220
 112.9353030  71.0556000  21.4968640 116.6637850  73.5994630  26.3933020
 116.2017220  73.8077650  27.2052960 116.2615960  72.7853980  26.0903690
 121.6642360  74.8203580  27.5229680 120.8135950  74.5209330  27.8438750
 121.5044150  75.0645590  26.6113500 118.7592070  76.3205330  29.6228470
 119.0845480  75.4869080  29.2830700 119.5472400  76.8433850  29.7706800
 115.4926860  70.3536810  15.6703530 114.8681040  70.3496680  16.3956840
 115.4056980  69.4867770  15.2739500 114.4143940  71.2773440  22.6487300
 114.7116270  72.1836270  22.5679320 114.9629500  70.7892220  22.0346870
 112.1682260  75.8559680  18.5178950 111.9423180  75.6396850  19.4225570
 111.3874790  76.2888140  18.1724920 119.3980020  75.8623050  17.1169600
 118.7988910  76.5858850  16.9333220 119.9459630  75.7999830  16.3346050
 114.6081470  76.7545260  29.1839220 114.5125070  75.8139990  29.0339620
 115.4513450  76.9760330  28.7887290 118.0044890  74.4986590  19.1472880
 118.3974460  74.8158790  18.3341570 118.3661740  73.6198470  19.2617400
 109.7392010  73.1658930  27.3373000 109.3455400  74.0134140  27.5445780
 109.0510410  72.5285300  27.5281640 116.3137060  73.2493900  30.4069740
 115.6235380  73.0566100  31.0415830 117.0569360  73.5328540  30.9394040
 107.0409060  71.0887390  21.3703080 106.7522110  71.6590250  22.0828060
 107.7854820  70.6091840  21.7334310 107.2279290  75.0307510  12.5805800
 107.1453960  75.9738270  12.7220790 106.8762350  74.8882420  11.7018150
 118.5900030  77.0892340  23.2423660 117.8581150  77.5979150  23.5913760
 118.1924370  76.2722320  22.9412440 115.0277420  73.7646540  21.6476150
 115.0313480  73.3236490  20.7980690 115.9228540  74.0863870  21.7547970
 110.8779800  73.6473030  20.6070360 110.5379850  74.1248260  21.3637410
 110.1157120  73.1938150  20.2471460 115.0897570  74.7658620  14.6382910
 115.2110390  74.7245100  15.5868730 114.7046080  75.6282770  14.4829640
 119.0525940  72.5426020  22.6546600 119.0698680  72.9934670  23.4988450
 118.8041520  71.6431660  22.8680040 114.1019070  77.0759760  14.0366210
 113.5335970  76.6278010  13.4102120 114.8108070  77.4352540  13.5031360
 122.4796690  69.9558200  28.4932980 122.8042460  69.2247860  29.0190960
 122.5153200  69.6371840  27.5913970 109.1788250  80.9771780  27.9132940
 108.7943040  80.3365450  28.5115900 109.4900440  81.6807900  28.4827670
 115.3285390  77.8248320  23.3941560 115.6955520  77.3506890  24.1402900
 115.1390450  78.6989890  23.7349900 108.1925880  72.5692010  19.5235030
 107.9072800  72.2047680  20.3613650 108.1304740  71.8372470  18.9098170
 113.1184760  76.8656960  25.7125770 112.8141830  77.7448940  25.9376130
 114.0731220  76.9256750  25.7483210 111.6466550  81.0717950  16.3092620
 110.8728810  80.5315570  16.1491340 112.3761180  80.5524560  15.9710380
 122.4054530  80.0683310  22.1019010 123.1253650  80.5638600  21.7115120
 122.2036350  79.3901200  21.4572880 117.8664470  71.4621270  16.2448400
 117.0529080  70.9634440  16.1693710 117.6726420  72.3019520  15.8284750
 120.5812860  75.8340920  14.5410560 121.4692480  76.1458150  14.3661900
 120.5517950  74.9613170  14.1491140 111.6903950  80.7398330  19.9471430
 112.2082620  79.9366590  19.8928320 111.2387970  80.6777470  20.7888260
 116.5773450  82.0064610  15.2198730 116.9189150  82.7506840  14.7242050
 115.7486160  82.3195730  15.5823560 109.1748490  77.7059700  26.8597130
 108.8163430  78.3713550  27.4470470 108.8803050  76.8743250  27.2309750
 112.3761610  78.1643940  29.7436680 112.0761750  78.3101120  28.8464500
 113.1472850  77.6049230  29.6510070 117.7190060  82.9612940  27.7391810
 117.7334600  82.0293900  27.5210720 117.0115160  83.0472700  28.3781580
 122.8527130  77.1452760  14.0090420 122.7690850  77.5766980  13.1586860
 123.5721320  77.6051110  14.4417240 123.9301270  79.6020280  27.0860390
 123.2049460  80.1949060  26.8889780 124.4576730  79.5943820  26.2873760
 123.8814380  83.9995020  16.7372550 123.2390540  83.3450640  17.0116270
 123.4945040  84.4050110  15.9613220 119.4600860  81.3280450  20.5844240
 119.8124680  80.7308580  19.9245610 118.5763190  81.0024680  20.7552490
 115.5464140  82.0878140  17.9914650 116.2335270  82.6347350  18.3722240
 114.7596560  82.6318870  18.0264260 107.6856540  77.7050960  13.4831730
 108.5551390  77.9875760  13.7667650 107.1946860  78.5186830  13.3680540
 114.8491350  79.0924170  17.6040010 115.3054130  79.9029420  17.8300200
 114.4979560  78.7747310  18.4358500 117.1523960  84.6030510  24.8332310
 117.7966180  84.8089890  25.5105730 117.5153400  83.8418910  24.3803160
 110.7503130  69.4361820  18.0762530 110.6217760  69.4279720  19.0247450
 109.9265150  69.7744910  17.7253540 118.4256040  82.6062860  23.5509760
 119.0678270  81.9056020  23.6641930 118.9505390  83.3861300  23.3706650
 122.2711760  82.8911480  13.2748900 122.0449340  82.1741920  13.8673540
 121.8807960  82.6423920  12.4370650 120.1993660  83.4057760  26.7545820
 120.5349900  83.9924450  27.4323740 119.2794000  83.2750470  26.9843610
 108.0527790  86.9178340  14.0493360 108.4125430  87.5167680  13.3950630
 107.9120130  87.4638230  14.8228390 107.7497060  71.1952940  27.5369230
 107.0355580  71.3949860  28.1421840 108.1692100  70.4192510  27.9084030
 121.8528010  80.8083420  14.9363060 121.5649710  81.2696110  15.7240940
 122.6480180  80.3481190  15.2047280 108.0369650  85.1833200  28.5235760
 108.1460770  84.2427940  28.3831150 107.3850210  85.4487950  27.8749490
 116.0282240  83.4549090  29.9233880 115.7079110  82.7358330  30.4679570
 115.3540600  84.1304160  29.9969940 114.0696410  84.3009540  14.8667030
 114.0606510  85.0339230  14.2511540 113.1494770  84.0541120  14.9593990
 109.6703050  79.5224430  15.6113790 109.0631000  80.2623330  15.6209090
 110.1452400  79.6123790  14.7851990 119.2435840  73.6875250  25.2870680
 119.6116660  72.8670460  25.6150250 118.3834040  73.7477140  25.7026330
 122.6097870  72.6432190  16.0958240 121.9811030  72.7477860  15.3816470
 122.1149790  72.8628970  16.8852120 117.0556010  84.3637780  13.5292220
 117.1567990  84.1601770  12.5994200 116.1557750  84.1096060  13.7340000
 114.5781900  74.9218140  17.5116120 113.8698050  75.3904480  17.9529730
 114.8626380  74.2640150  18.1461310 116.2037830  76.3414840  25.5108650
 116.7023080  76.8160660  26.1760500 116.3460780  75.4178360  25.7178680
 118.6097330  71.6468800  18.9511910 118.4865110  71.6654930  18.0021420
 119.5581890  71.6947740  19.0710310 115.6974120  86.8824100  18.2239890
 115.9515620  86.8445490  17.3019260 114.7486600  86.7557430  18.2168140
 112.7816920  73.2303220  14.8866830 113.6307450  73.6673370  14.8207020
 112.4148190  73.5423480  15.7138890 123.4104690  72.5582800  26.3537040
 122.9078290  73.2988200  26.6930850 124.2261350  72.9466800  26.0373830
 121.7026700  77.8015980  19.7998400 120.7616840  77.8166210  19.9746090
 122.0170770  77.0151940  20.2458700 111.6808340  79.4835580  13.3602360
 112.4471610  79.3716940  13.9227790 111.7583030  78.7873550  12.7079130
 110.3755100  76.9160650  14.0435250 110.4558690  75.9688160  14.1552650
 111.2674850  77.2467530  14.1495910 123.7052280  84.9724830  21.4752660
 123.8299700  85.7956000  21.9476470 124.5717840  84.7615560  21.1276810
 111.1769810  87.0656040  21.1469790 111.9132290  86.5171500  21.4178360
 111.5610730  87.9312050  21.0075780 108.0615290  83.1329610  17.0211300
 107.1355070  83.3750750  17.0116710 108.5271720  83.9603870  16.8996050
 110.1828090  86.2502110  30.3355370 110.9840820  86.5714160  30.7490770
 109.6679910  85.8897690  31.0575280 114.2872120  86.2386350  12.9695360
 115.0800730  86.5275180  12.5177150 113.7676470  85.8078520  12.2907840
 119.0192720  82.3581980  30.2830780 118.4130880  82.3813580  29.5426530
 118.7146830  81.6265020  30.8198030 120.4493090  86.0862270  28.8940190
 121.4014840  86.0020290  28.8440430 120.3021310  86.7503980  29.5673980
 123.3402290  85.4656480  14.3932100 123.0543800  85.0521620  13.5786280
 123.1421840  86.3944190  14.2732620 107.9025900  78.7375570  29.2791420
 108.4064920  78.1582850  29.8507650 107.1633320  79.0215800  29.8167790
 114.8049520  81.4589760  12.8337710 114.7000160  80.8442110  13.5599090
 114.6373740  80.9355650  12.0500720 114.9563840  80.1446560  28.8126940
 114.1909510  80.7131560  28.7281610 115.1379800  79.8522770  27.9195170
 118.0452250  80.5209790  13.4379700 117.4962350  80.9679090  14.0822440
 118.6671510  80.0159040  13.9617370 122.0987190  81.8751890  29.3701960
 122.8396660  82.2127650  28.8669420 121.3359870  82.0443950  28.8171730
 109.9348980  76.8805160  30.1741490 109.9754320  76.5819030  31.0826720
 110.7894480  77.2812770  30.0149010 113.7127370  79.4800710  15.3345000
 114.1343790  79.3140580  16.1776390 113.8378210  78.6700940  14.8400140
 111.8754790  75.4597260  28.1415980 111.3451250  74.9688210  27.5139320
 112.5442860  75.8881460  27.6073910 116.2255010  78.5038320  12.5822100
 116.7460670  77.7887340  12.2163250 116.8723410  79.1424190  12.8822610
 120.7732850  79.9266720  27.9057170 121.1873870  80.0811800  28.7547590
 119.8383850  80.0521940  28.0682950 121.2455020  77.2662880  29.9096320
 121.8275790  76.5115200  29.8216800 121.4216790  77.7970320  29.1327800
 112.3627090  72.4259630  28.2213270 112.2683960  71.8080380  27.4964140
 111.7824480  73.1525920  27.9943180 115.1288530  70.9832870  25.2540660
 114.6805830  71.0057130  24.4086210 114.4953730  70.5851890  25.8510960
 115.5348080  79.8787200  25.8753100 115.9536190  80.7219930  25.7029340
 114.6156710  80.0159240  25.6459880 117.8711980  77.6103380  27.2590940
 117.9908190  77.0144520  27.9985780 118.7305980  77.6473070  26.8392240
 120.2099880  78.1640570  25.8353450 119.6835100  78.6883190  25.2318590
 120.5531220  78.7967960  26.4663180 112.6086270  75.5533940  12.2803160
 112.4075330  74.6901300  12.6416500 112.4378320  75.4667300  11.3424760
 113.3855500  86.1840210  26.9910830 112.8476590  86.9086270  26.6719530
 113.6389460  85.7070550  26.2008170 114.6380750  74.1524730  28.5166760
 115.2280440  73.8440580  29.2044580 113.8200990  73.6804480  28.6726660
 119.4574180  73.7690540  28.7499780 118.7689700  73.1072080  28.6849770
 120.1780200  73.3228810  29.1948240 120.0874580  70.3642170  14.8090040
 120.3676870  69.5210070  15.1649460 119.3140310  70.5965280  15.3228790
 111.4069070  72.6534560  12.2681040 111.7094970  72.6601990  11.3600190
 112.1463660  72.3032420  12.7648700 116.2417710  87.4191420  27.2497480
 116.1676410  88.3226560  27.5569850 115.3396550  87.1003320  27.2219550
 114.6254000  71.5969180  13.2537240 114.2776000  70.9193170  12.6739690
 114.8266770  71.1358690  14.0680630 116.7903040  86.5849930  14.8723840
 117.6853830  86.9234900  14.8942600 116.8220670  85.8629340  14.2448120
 110.4299200  81.9576980  13.1010840 110.8674070  82.5006650  13.7568420
 110.9146930  81.1323930  13.1107180 107.6445000  84.7466010  20.5531100
 107.9748010  83.8787070  20.3209740 108.0736000  84.9524530  21.3836060
 112.2406920  83.0775020  18.2133070 111.9402460  82.9539990  19.1136980
 112.1344410  82.2183610  17.8048800 108.1335210  85.6136600  23.2912730
 107.6966200  85.7937400  24.1236880 108.7012890  86.3711220  23.1494450
 123.7697390  85.1153600  27.5790040 123.1699380  85.1746160  26.8353960
 123.8991290  84.1758580  27.7086890 125.0098840  82.8571420  12.9159750
 124.1791800  82.9248070  13.3866980 125.1870670  83.7475540  12.6126610
 124.4655300  79.6018900  15.4193950 125.2274210  80.1715550  15.5253640
 124.4809670  79.0346100  16.1902260 107.9659640  78.1256830  19.6501610
 107.3108480  77.8568470  19.0061310 108.8037590  78.0161310  19.2003590
 125.4715270  80.4569000  20.2635880 125.8424100  79.6736320  19.8571850
 126.1117200  81.1458100  20.0853180 122.4549030  81.8405580  25.6766200
 121.6408870  82.2702740  25.9391990 122.8623230  82.4523990  25.0635250
 124.5174470  79.8953270  12.5766470 124.7923310  80.8032150  12.4485690
 124.3285210  79.8315800  13.5128460 120.9150080  72.9198120  13.8720100
 121.3334960  72.7329100  13.0316760 120.6086140  72.0677170  14.1823030
 124.4139810  77.8322260  17.5695900 124.0383410  77.0650190  17.1377190
 123.6842930  78.2144960  18.0570830 109.0035570  78.5109400  24.1904950
 109.3708610  78.4236800  25.0700970 108.4346390  77.7475950  24.0911810
 123.8039430  76.9793780  27.2035420 123.5725520  76.7506530  26.3033370
 124.0643980  77.8993330  27.1580310 108.5551570  75.4218490  28.0963370
 107.6607620  75.3885250  28.4357080 109.0949120  75.6205280  28.8614620
 122.2427500  72.2050210  29.9815120 123.1197680  72.2133610  30.3649120
 122.2548340  71.4681050  29.3707470 107.1797720  75.3355760  15.5926940
 106.2761800  75.5985960  15.4178600 107.6638340  75.6066930  14.8126900
 123.6890770  76.0579750  20.8703140 124.2128250  75.5642400  20.2393310
 124.2750190  76.1930110  21.6150710 123.8680490  76.1419620  24.3922690
 122.9183200  76.1083160  24.5067680 124.0493500  77.0519730  24.1572460
 109.7224930  74.3921300  13.5021320 110.4316630  73.9704520  13.0168600
 109.0064870  74.4596530  12.8704670 109.3699090  70.4460630  12.5423970
 110.0927220  70.9869570  12.8605190 109.6423610  70.1724050  11.6665510
 123.1790740  75.3153100  16.8095550 123.6749860  75.0823970  17.5944430
 122.9806810  74.4764940  16.3933190 109.0591280  69.6966820  22.4446590
 109.7067470  69.1464200  22.0041750 109.4793120  69.9509970  23.2662400
 124.6077900  73.9514050  19.3433230 124.4977180  73.7970090  20.2815500
 125.3685490  73.4234990  19.1008640 122.9543620  69.8908180  25.8016230
 123.5915840  70.5042320  26.1675420 123.1018510  69.9268840  24.8565460
 125.4968170  71.7821970  12.5839370 126.4217480  71.6503150  12.3757660
 125.4743960  71.8614790  13.5375820 125.5706660  72.5532630  15.2096080
 124.7758160  72.4877750  15.7388990 125.7749940  73.4883270  15.1981430
 122.5125080  86.5924180  19.2034470 123.1084150  86.2708750  18.5268890
 122.7703230  86.1196000  19.9947740 108.8123280  69.8522490  25.1871910
 108.4638100  70.3086310  25.9530090 108.4810980  68.9579620  25.2694340
 110.4187650  83.0242090  29.3525100 110.3757280  82.6535000  30.2339560
 110.5498660  83.9619660  29.4926920 114.1193680  84.5801680  24.9534820
 113.8785040  84.8476240  24.0665340 115.0596320  84.7507410  25.0085680
 116.3248100  71.0434370  28.7091330 116.2636990  71.6356200  29.4586740
 117.2648480  70.9360330  28.5641590 118.9622660  70.7004430  28.3483620
 119.5763070  71.0183720  27.6864700 119.5072220  70.2153020  28.9679480
 125.3797840  86.5996060  25.7545460 124.8856120  86.9964930  25.0372590
 124.7711130  85.9745270  26.1482740 109.4843920  69.3798690  28.4622680
 110.0326910  69.1986740  27.6988790 109.5499230  68.5892800  28.9978990
 110.2575680  85.9704340  26.4722880 109.6636000  85.8389040  27.2112920
 110.2499520  85.1342480  26.0064980 119.7030700  69.2636570  24.6752910
 118.8290540  69.5971680  24.4725840 119.5941450  68.7909750  25.5004780
 120.6102680  71.4707440  26.0594630 120.2816040  70.6559200  25.6796360
 121.5584980  71.4277250  25.9360320 123.0637290  87.2419480  23.0332200
 122.6040260  87.9935290  22.6590220 122.4349750  86.5225950  22.9747000
 109.8887910  83.3362720  25.4230920 109.1621970  82.7168010  25.3556870
 109.9497060  83.7303330  24.5529000 113.4933010  85.5507720  22.2080330
 114.0098030  84.9395080  21.6828590 114.1430390  86.0536500  22.6991340
 116.2328510  86.4416210  23.0349310 116.5206320  86.1870510  22.1582320
 116.7451730  85.8893570  23.6254880 117.4505520  70.1806410  23.6145820
 116.6677310  70.6551910  23.8942580 117.1568450  69.2761240  23.5059000
 122.0026590  70.8829510  21.6594910 122.4434680  70.8274610  20.8116510
 121.7334180  71.7987520  21.7305090 123.8665160  70.5144750  19.6703730
 123.8053560  69.5705970  19.5234750 124.6457190  70.6224840  20.2157190
 108.1717910  86.6537110  18.6327680 108.0039950  86.0207790  19.3309570
 107.3052420  86.8596510  18.2821870 108.7945930  70.4853890  16.1359540
 109.5525290  70.5982770  15.5623570 108.3323100  71.3223090  16.0902970
 115.3359740  72.5993160  19.1261850 114.5234250  72.2250050  18.7857730
 115.8401380  71.8438240  19.4283040 119.8384720  69.2635610  20.3644920
 120.4414090  69.8355820  20.8393440 119.0977710  69.8275050  20.1418820
 122.9819320  69.6657170  15.6385200 123.1769950  70.5640620  15.9052630
 122.1949190  69.4344250  16.1318150 109.7780610  85.3470340  16.0777820
 109.2528230  85.7278370  15.3739780 109.7025190  85.9721110  16.7987530
 111.1671080  71.0117940  14.6761510 111.6963840  70.2247740  14.5469460
 111.7999400  71.6909130  14.9097040 113.3608920  70.7493080  17.7306900
 112.7311660  70.0480390  17.8977030 112.8214060  71.5097210  17.5140060
 116.3000870  87.3632310  30.4017510 117.2268180  87.1276580  30.4453470
 116.2851300  88.1904310  29.9203540 124.5345930  86.9057880  17.3991760
 124.7098120  86.2195620  16.7552680 123.8367500  87.4304930  17.0068430
 113.4864480  70.0277060  30.1659390 113.2048750  70.5310660  29.4020210
 113.8684180  69.2298810  29.8001520 112.3773580  87.2952720  14.9527070
 113.1092400  87.0112000  14.4050960 112.6367250  87.0566000  15.8426450
 111.5388370  83.4117450  14.9573400 110.9097250  83.8802550  15.5059230
 111.6536200  82.5666670  15.3919590 120.0879940  69.4430640  30.7439860
 119.9745390  69.7625250  31.6391380 120.9049680  69.8443150  30.4477140
 122.8678430  86.5902170  30.2258550 123.6603750  86.0951400  30.0184510
 123.1611580  87.2692310  30.8334160 117.1256130  79.2402130   2.9883870
 116.3498230  78.7602570   3.2782440 117.7769060  78.5607780   2.8140030
 111.1421960  79.5521940   3.8659630 110.3106840  79.2970650   4.2656140
 111.7502940  79.6232710   4.6017550 121.1463560  83.6462320   1.7683000
 120.6845090  82.8749560   2.0970170 121.9589110  83.6728390   2.2735450
 111.1223220  83.5862030   4.0617650 111.4251260  82.6959770   3.8827870
 111.8666810  84.1432250   3.8339900 107.5146920  77.1129480   3.5341720
 108.0863030  76.3451680   3.5345360 107.5148460  77.4118240   2.6248330
 116.5665120  81.9159320   2.9954030 116.4973400  80.9749260   2.8343160
 117.3284980  82.0060730   3.5676600 108.7571790  72.5213840   5.3210650
 108.5774630  71.6239590   5.6013410 108.3551870  73.0685710   5.9957600
 117.5970290  74.7229700   3.2222960 117.9735110  73.8501580   3.1096630
 117.4989800  75.0588400   2.3313400 109.3758460  75.0174340   3.9292990
 110.0568570  75.2812710   4.5480390 109.0606510  74.1775210   4.2631000
 113.5683030  76.0641700   3.0165580 114.0761250  76.5622670   3.6570600
 114.0996270  75.2876900   2.8404940 125.6693960  74.2346890   6.7194930
 124.9646130  74.6228600   6.2010040 125.9351880  74.9297180   7.3215860
 111.8519130  70.7040260   7.2829000 111.8537570  71.2212650   6.4774900
 111.0223440  70.2270440   7.2598930 113.1021980  80.3435440   5.4602500
 112.7691360  80.9704360   6.1023570 113.2788660  80.8697320   4.6804170
 121.6155890  74.1580520   2.9278840 120.9111460  74.4465410   3.5081950
 121.9768050  74.9680630   2.5678400 111.5334460  72.4150220   5.2899450
 111.8751270  73.2592270   4.9953320 110.5950270  72.5633960   5.4064790
 112.3141080  82.3116240   7.2751680 112.9315080  82.9867320   6.9936130
 111.4534200  82.7204220   7.1839180 123.2318670  83.7755650   5.1906320
 122.5482190  84.4454760   5.1822990 123.7712960  83.9736300   4.4251180
 124.6842810  73.6035310   3.3188050 123.7367720  73.6374290   3.4503480
 125.0092800  74.4174260   3.7037410 120.7677410  85.6199780   3.9051500
 120.7804570  85.2162070   3.0373760 120.2152630  86.3947070   3.8012930
 120.1662850  80.5229620   5.2334110 120.5831640  80.3089730   4.3987570
 120.8902670  80.7802410   5.8042730 124.1124950  78.9216840   5.3250350
 123.2843580  78.9909930   4.8500480 124.7075430  79.5071150   4.8566180
 121.0766960  75.7086160   6.2705220 120.6638140  76.5339870   6.5245210
 120.3442910  75.1231200   6.0781580 113.6781450  82.1813620   3.2963100
 113.3809740  81.5759090   2.6170880 114.6281270  82.2190930   3.1852460
 111.9228370  75.2689270   4.9122930 112.4742960  75.3784610   4.1376180
 112.4371880  75.6426870   5.6278160 121.7667060  85.7545490   6.9586200
 121.2897620  86.5617680   6.7658810 121.0828850  85.1023820   7.1112410
 112.7699880  81.9195310   9.9470900 111.8728410  82.1435280  10.1944300
 112.7952750  82.0430250   8.9982300 111.5971100  78.7908630   8.5228270
 111.4578870  79.6631430   8.8915670 110.7152460  78.4481440   8.3776210
 113.3951450  84.7330330  10.7313420 113.3666880  85.1373280   9.8641850
 113.2316420  83.8040690  10.5685020 125.3466270  85.5157430  12.0277590
 125.8225990  85.9940320  12.7066670 125.9673430  85.4474920  11.3023090
 107.5489750  80.5606180   4.4399180 107.6270170  80.6954950   3.4954900
 108.1631430  79.8522070   4.6327300 124.7499520  82.7070280   9.1877600
 124.8762580  82.4682160   8.2694780 124.7920900  81.8754820   9.6599680
 118.6116260  86.4098280   7.7572410 119.1260930  86.3206290   8.5594840
 117.7685340  86.7557980   8.0500320 124.6023530  74.7602740  10.1527340
 123.9867800  75.2682410   9.6242800 124.2819950  73.8601070  10.0953280
 107.6049270  81.6020350   6.9793640 107.7680310  81.1325710   6.1613010
 108.0701720  81.0943910   7.6442480 112.3768040  70.7326110   2.0154210
 111.9336190  71.5135650   1.6838730 112.9353030  71.0556000   2.7225150
 116.6637850  73.5994630   7.6189530 116.2017220  73.8077650   8.4309470
 116.2615960  72.7853980   7.3160200 121.6642360  74.8203580   8.7486190
 120.8135950  74.5209330   9.0695260 121.5044150  75.0645590   7.8370010
 118.7592070  76.3205330  10.8484980 119.0845480  75.4869080  10.5087210
 119.5472400  76.8433850  10.9963310 114.4143940  71.2773440   3.8743810
 114.7116270  72.1836270   3.7935830 114.9629500  70.7892220   3.2603380
 114.6081470  76.7545260  10.4095730 114.5125070  75.8139990  10.2596130
 115.4513450  76.9760330  10.0143800 109.7392010  73.1658930   8.5629510
 109.3455400  74.0134140   8.7702290 109.0510410  72.5285300   8.7538150
 116.3137060  73.2493900  11.6326250 115.6235380  73.0566100  12.2672340
 117.0569360  73.5328540  12.1650550 107.0409060  71.0887390   2.5959590
 106.7522110  71.6590250   3.3084570 107.7854820  70.6091840   2.9590820
 118.5900030  77.0892340   4.4680170 117.8581150  77.5979150   4.8170270
 118.1924370  76.2722320   4.1668950 115.0277420  73.7646540   2.8732660
 115.0313480  73.3236490   2.0237200 115.9228540  74.0863870   2.9804480
 110.8779800  73.6473030   1.8326870 110.5379850  74.1248260   2.5893920
 110.1157120  73.1938150   1.4727970 119.0525940  72.5426020   3.8803110
 119.0698680  72.9934670   4.7244960 118.8041520  71.6431660   4.0936550
 122.4796690  69.9558200   9.7189490 122.8042460  69.2247860  10.2447470
 122.5153200  69.6371840   8.8170480 109.1788250  80.9771780   9.1389450
 108.7943040  80.3365450   9.7372410 109.4900440  81.6807900   9.7084180
 115.3285390  77.8248320   4.6198070 115.6955520  77.3506890   5.3659410
 115.1390450  78.6989890   4.9606410 113.1184760  76.8656960   6.9382280
 112.8141830  77.7448940   7.1632640 114.0731220  76.9256750   6.9739720
 122.4054530  80.0683310   3.3275520 123.1253650  80.5638600   2.9371630
 122.2036350  79.3901200   2.6829390 117.7873330  80.1392370   9.2144520
 117.7210640  79.2188040   8.9602110 117.1578470  80.2367810   9.9289160
 109.1748490  77.7059700   8.0853640 108.8163430  78.3713550   8.6726980
 108.8803050  76.8743250   8.4566260 112.3761610  78.1643940  10.9693190
 112.0761750  78.3101120  10.0721010 113.1472850  77.6049230  10.8766580
 117.7190060  82.9612940   8.9648320 117.7334600  82.0293900   8.7467230
 117.0115160  83.0472700   9.6038090 123.9301270  79.6020280   8.3116900
 123.2049460  80.1949060   8.1146290 124.4576730  79.5943820   7.5130270
 117.1523960  84.6030510   6.0588820 117.7966180  84.8089890   6.7362240
 117.5153400  83.8418910   5.6059670 118.4256040  82.6062860   4.7766270
 119.0678270  81.9056020   4.8898440 118.9505390  83.3861300   4.5963160
 120.1993660  83.4057760   7.9802330 120.5349900  83.9924450   8.6580250
 119.2794000  83.2750470   8.2100120 107.7497060  71.1952940   8.7625740
 107.0355580  71.3949860   9.3678350 108.1692100  70.4192510   9.1340540
 108.0369650  85.1833200   9.7492270 108.1460770  84.2427940   9.6087660
 107.3850210  85.4487950   9.1006000 116.0282240  83.4549090  11.1490390
 115.7079110  82.7358330  11.6936080 115.3540600  84.1304160  11.2226450
 119.2435840  73.6875250   6.5127190 119.6116660  72.8670460   6.8406760
 118.3834040  73.7477140   6.9282840 116.2037830  76.3414840   6.7365160
 116.7023080  76.8160660   7.4017010 116.3460780  75.4178360   6.9435190
 123.4104690  72.5582800   7.5793550 122.9078290  73.2988200   7.9187360
 124.2261350  72.9466800   7.2630340 123.7052280  84.9724830   2.7009170
 123.8299700  85.7956000   3.1732980 124.5717840  84.7615560   2.3533320
 111.1769810  87.0656040   2.3726300 111.9132290  86.5171500   2.6434870
 111.5610730  87.9312050   2.2332290 110.1828090  86.2502110  11.5611880
 110.9840820  86.5714160  11.9747280 109.6679910  85.8897690  12.2831790
 119.0192720  82.3581980  11.5087290 118.4130880  82.3813580  10.7683040
 118.7146830  81.6265020  12.0454540 120.4493090  86.0862270  10.1196700
 121.4014840  86.0020290  10.0696940 120.3021310  86.7503980  10.7930490
 107.9025900  78.7375570  10.5047930 108.4064920  78.1582850  11.0764160
 107.1633320  79.0215800  11.0424300 114.9563840  80.1446560  10.0383450
 114.1909510  80.7131560   9.9538120 115.1379800  79.8522770   9.1451680
 122.0987190  81.8751890  10.5958470 122.8396660  82.2127650  10.0925930
 121.3359870  82.0443950  10.0428240 109.9348980  76.8805160  11.3998000
 109.9754320  76.5819030  12.3083230 110.7894480  77.2812770  11.2405520
 111.8754790  75.4597260   9.3672490 111.3451250  74.9688210   8.7395830
 112.5442860  75.8881460   8.8330420 120.7732850  79.9266720   9.1313680
 121.1873870  80.0811800   9.9804100 119.8383850  80.0521940   9.2939460
 121.2455020  77.2662880  11.1352830 121.8275790  76.5115200  11.0473310
 121.4216790  77.7970320  10.3584310 112.3627090  72.4259630   9.4469780
 112.2683960  71.8080380   8.7220650 111.7824480  73.1525920   9.2199690
 115.1288530  70.9832870   6.4797170 114.6805830  71.0057130   5.6342720
 114.4953730  70.5851890   7.0767470 115.5348080  79.8787200   7.1009610
 115.9536190  80.7219930   6.9285850 114.6156710  80.0159240   6.8716390
 117.8711980  77.6103380   8.4847450 117.9908190  77.0144520   9.2242290
 118.7305980  77.6473070   8.0648750 120.2099880  78.1640570   7.0609960
 119.6835100  78.6883190   6.4575100 120.5531220  78.7967960   7.6919690
 113.3855500  86.1840210   8.2167340 112.8476590  86.9086270   7.8976040
 113.6389460  85.7070550   7.4264680 114.6380750  74.1524730   9.7423270
 115.2280440  73.8440580  10.4301090 113.8200990  73.6804480   9.8983170
 119.4574180  73.7690540   9.9756290 118.7689700  73.1072080   9.9106280
 120.1780200  73.3228810  10.4204750 116.2417710  87.4191420   8.4753990
 116.1676410  88.3226560   8.7826360 115.3396550  87.1003320   8.4476060
 107.6445000  84.7466010   1.7787610 107.9748010  83.8787070   1.5466250
 108.0736000  84.9524530   2.6092570 108.1335210  85.6136600   4.5169240
 107.6966200  85.7937400   5.3493390 108.7012890  86.3711220   4.3750960
 123.7697390  85.1153600   8.8046550 123.1699380  85.1746160   8.0610470
 123.8991290  84.1758580   8.9343400 122.4549030  81.8405580   6.9022710
 121.6408870  82.2702740   7.1648500 122.8623230  82.4523990   6.2891760
 109.0035570  78.5109400   5.4161460 109.3708610  78.4236800   6.2957480
 108.4346390  77.7475950   5.3168320 123.8039430  76.9793780   8.4291930
 123.5725520  76.7506530   7.5289880 124.0643980  77.8993330   8.3836820
 108.5551570  75.4218490   9.3219880 107.6607620  75.3885250   9.6613590
 109.0949120  75.6205280  10.0871130 122.2427500  72.2050210  11.2071630
 123.1197680  72.2133610  11.5905630 122.2548340  71.4681050  10.5963980
 123.6890770  76.0579750   2.0959650 124.2128250  75.5642400   1.4649820
 124.2750190  76.1930110   2.8407220 123.8680490  76.1419620   5.6179200
 122.9183200  76.1083160   5.7324190 124.0493500  77.0519730   5.3828970
 109.0591280  69.6966820   3.6703100 109.7067470  69.1464200   3.2298260
 109.4793120  69.9509970   4.4918910 122.9543620  69.8908180   7.0272740
 123.5915840  70.5042320   7.3931930 123.1018510  69.9268840   6.0821970
 108.8123280  69.8522490   6.4128420 108.4638100  70.3086310   7.1786600
 108.4810980  68.9579620   6.4950850 110.4187650  83.0242090  10.5781610
 110.3757280  82.6535000  11.4596070 110.5498660  83.9619660  10.7183430
 114.1193680  84.5801680   6.1791330 113.8785040  84.8476240   5.2921850
 115.0596320  84.7507410   6.2342190 116.3248100  71.0434370   9.9347840
 116.2636990  71.6356200  10.6843250 117.2648480  70.9360330   9.7898100
 118.9622660  70.7004430   9.5740130 119.5763070  71.0183720   8.9121210
 119.5072220  70.2153020  10.1935990 125.3797840  86.5996060   6.9801970
 124.8856120  86.9964930   6.2629100 124.7711130  85.9745270   7.3739250
 109.4843920  69.3798690   9.6879190 110.0326910  69.1986740   8.9245300
 109.5499230  68.5892800  10.2235500 110.2575680  85.9704340   7.6979390
 109.6636000  85.8389040   8.4369430 110.2499520  85.1342480   7.2321490
 119.7030700  69.2636570   5.9009420 118.8290540  69.5971680   5.6982350
 119.5941450  68.7909750   6.7261290 120.6102680  71.4707440   7.2851140
 120.2816040  70.6559200   6.9052870 121.5584980  71.4277250   7.1616830
 123.0637290  87.2419480   4.2588710 122.6040260  87.9935290   3.8846730
 122.4349750  86.5225950   4.2003510 109.8887910  83.3362720   6.6487430
 109.1621970  82.7168010   6.5813380 109.9497060  83.7303330   5.7785510
 113.4933010  85.5507720   3.4336840 114.0098030  84.9395080   2.9085100
 114.1430390  86.0536500   3.9247850 116.2328510  86.4416210   4.2605820
 116.5206320  86.1870510   3.3838830 116.7451730  85.8893570   4.8511390
 117.4505520  70.1806410   4.8402330 116.6677310  70.6551910   5.1199090
 117.1568450  69.2761240   4.7315510 122.0026590  70.8829510   2.8851420
 122.4434680  70.8274610   2.0373020 121.7334180  71.7987520   2.9561600
 116.3000870  87.3632310  11.6274020 117.2268180  87.1276580  11.6709980
 116.2851300  88.1904310  11.1460050 113.4864480  70.0277060  11.3915900
 113.2048750  70.5310660  10.6276720 113.8684180  69.2298810  11.0258030
 120.0879940  69.4430640  11.9696370 119.9745390  69.7625250  12.8647890
 120.9049680  69.8443150  11.6733650 122.8678430  86.5902170  11.4515060
 123.6603750  86.0951400  11.2441020 123.1611580  87.2692310  12.0590670
 118.9938090  58.6879620  57.4305070 118.9132140  57.7734230  57.1596780
 118.5802510  59.1846690  56.7244780 117.1256130  60.4658640  59.3114340
 116.3498230  59.9859080  59.6012910 117.7769060  59.7864290  59.1370500
 121.1463560  64.8718830  58.0913470 120.6845090  64.1006070  58.4200640
 121.9589110  64.8984900  58.5965920 109.5513910  55.7380340  53.9732490
 108.6630610  56.0796310  53.8712370 109.8355100  55.5380660  53.0813320
 107.5146920  58.3385990  59.8572190 108.0863030  57.5708190  59.8575830
 107.5148460  58.6374750  58.9478800 117.3726870  67.1576840  57.7117460
 116.7538310  67.6134340  57.1411900 118.2278650  67.3128300  57.3107160
 116.5665120  63.1415830  59.3184500 116.4973400  62.2005770  59.1573630
 117.3284980  63.2317240  59.8907070 117.5970290  55.9486210  59.5453430
 117.9735110  55.0758090  59.4327100 117.4989800  56.2844910  58.6543870
 111.7275300  54.3211840  55.0070870 111.8342050  55.2215570  55.3139630
 110.8167660  54.2729810  54.7165520 121.3794410  53.4436650  56.4781770
 122.2004030  52.9533220  56.5207250 121.4128490  54.0334310  57.2313610
 113.5683030  57.2898210  59.3396050 114.0761250  57.7879180  59.9801070
 114.0996270  56.5133410  59.1635410 118.2390220  62.0416080  55.1049370
 117.6207490  62.5065530  54.5412090 118.7513470  62.7343560  55.5218880
 121.6155890  55.3837030  59.2509310 120.9111460  55.6721920  59.8312420
 121.9768050  56.1937140  58.8908870 107.6073420  62.7272610  52.4789000
 107.2301400  63.2159710  51.7473900 107.8646490  63.3997890  53.1095530
 124.6842810  54.8291820  59.6418520 123.7367720  54.8630800  59.7733950
 125.0092800  55.6430770  60.0267880 115.2162350  51.1289000  57.9374510
 115.5237330  50.5735890  57.2210010 114.2863050  51.2633460  57.7547500
 120.7677410  66.8456290  60.2281970 120.7804570  66.4418580  59.3604230
 120.2152630  67.6203580  60.1243400 122.0622830  63.5672510  55.3172140
 121.9519160  62.6246840  55.4421560 122.0591080  63.9288150  56.2034900
 117.6043110  59.1937830  54.6734630 116.6772390  59.1275210  54.9023100
 117.7567930  60.1317960  54.5589870 117.5912190  55.4654830  51.6701790
 116.6515860  55.6268790  51.7554250 117.9095450  56.1840510  51.1237780
 121.6340400  60.7558130  55.1769880 121.0152820  60.4177680  54.5296180
 121.6164850  60.1117890  55.8849070 113.2099750  59.7202570  57.4554360
 112.8056750  59.0079820  56.9600260 113.2962870  59.3755810  58.3442400
 113.6781450  63.4070130  59.6193570 113.3809740  62.8015600  58.9401350
 114.6281270  63.4447440  59.5082930 119.8105100  59.9944940  52.1842630
 120.2498380  59.1567370  52.0380450 120.5233520  60.6274340  52.2706770
 117.9200480  64.9341010  56.1523870 118.3596390  65.6765340  55.7379260
 117.8587370  65.1767580  57.0762830 123.3922240  51.2487750  50.4983670
 123.0794900  51.3414580  51.3982740 124.1534710  51.8268780  50.4481100
 109.9104380  58.6147550  54.9561010 109.7901980  59.3409640  54.3442280
 109.6005270  57.8450460  54.4788920 108.7937380  63.4862880  57.1735830
 108.3865460  63.6277470  56.3189430 109.6850390  63.2023040  56.9707040
 120.5870660  67.9210130  53.5086880 120.4271800  67.6313070  54.4068710
 120.4217370  67.1450260  52.9732110 113.0659040  67.7008660  55.2858500
 112.8901520  66.7844200  55.0726300 112.2114780  68.0595950  55.5256300
 120.2896790  65.4297690  52.0684880 119.5961950  65.4274980  51.4087160
 121.0319650  65.0057010  51.6379050 119.8546720  67.0560400  56.1433370
 120.3103670  66.2749780  56.4571990 120.1939240  67.7667220  56.6874550
 112.3768040  51.9582620  58.3384680 111.9336190  52.7392160  58.0069200
 112.9353030  52.2812510  59.0455620 115.4926860  51.5793320  53.2190510
 114.8681040  51.5753190  53.9443820 115.4056980  50.7124280  52.8226480
 114.4143940  52.5029950  60.1974280 114.7116270  53.4092780  60.1166300
 114.9629500  52.0148730  59.5833850 112.1682260  57.0816190  56.0665930
 111.9423180  56.8653360  56.9712550 111.3874790  57.5144650  55.7211900
 119.3980020  57.0879560  54.6656580 118.7988910  57.8115360  54.4820200
 119.9459630  57.0256340  53.8833030 118.0044890  55.7243100  56.6959860
 118.3974460  56.0415300  55.8828550 118.3661740  54.8454980  56.8104380
 107.0409060  52.3143900  58.9190060 106.7522110  52.8846760  59.6315040
 107.7854820  51.8348350  59.2821290 107.2279290  56.2564020  50.1292780
 107.1453960  57.1994780  50.2707770 106.8762350  56.1138930  49.2505130
 115.0277420  54.9903050  59.1963130 115.0313480  54.5493000  58.3467670
 115.9228540  55.3120380  59.3034950 110.8779800  54.8729540  58.1557340
 110.5379850  55.3504770  58.9124390 110.1157120  54.4194660  57.7958440
 115.0897570  55.9915130  52.1869890 115.2110390  55.9501610  53.1355710
 114.7046080  56.8539280  52.0316620 114.1019070  58.3016270  51.5853190
 113.5335970  57.8534520  50.9589100 114.8108070  58.6609050  51.0518340
 108.1925880  53.7948520  57.0722010 107.9072800  53.4304190  57.9100630
 108.1304740  53.0628980  56.4585150 111.6466550  62.2974460  53.8579600
 110.8728810  61.7572080  53.6978320 112.3761180  61.7781070  53.5197360
 122.4054530  61.2939820  59.6505990 123.1253650  61.7895110  59.2602100
 122.2036350  60.6157710  59.0059860 117.8664470  52.6877780  53.7935380
 117.0529080  52.1890950  53.7180690 117.6726420  53.5276030  53.3771730
 120.5812860  57.0597430  52.0897540 121.4692480  57.3714660  51.9148880
 120.5517950  56.1869680  51.6978120 111.6903950  61.9654840  57.4958410
 112.2082620  61.1623100  57.4415300 111.2387970  61.9033980  58.3375240
 116.5773450  63.2321120  52.7685710 116.9189150  63.9763350  52.2729030
 115.7486160  63.5452240  53.1310540 122.8527130  58.3709270  51.5577400
 122.7690850  58.8023490  50.7073840 123.5721320  58.8307620  51.9904220
 123.8814380  65.2251530  54.2859530 123.2390540  64.5707150  54.5603250
 123.4945040  65.6306620  53.5100200 119.4600860  62.5536960  58.1331220
 119.8124680  61.9565090  57.4732590 118.5763190  62.2281190  58.3039470
 115.5464140  63.3134650  55.5401630 116.2335270  63.8603860  55.9209220
 114.7596560  63.8575380  55.5751240 107.6856540  58.9307470  51.0318710
 108.5551390  59.2132270  51.3154630 107.1946860  59.7443340  50.9167520
 114.8491350  60.3180680  55.1526990 115.3054130  61.1285930  55.3787180
 114.4979560  60.0003820  55.9845480 110.7503130  50.6618330  55.6249510
 110.6217760  50.6536230  56.5734430 109.9265150  51.0001420  55.2740520
 122.2711760  64.1167990  50.8235880 122.0449340  63.3998430  51.4160520
 121.8807960  63.8680430  49.9857630 108.0527790  68.1434850  51.5980340
 108.4125430  68.7424190  50.9437610 107.9120130  68.6894740  52.3715370
 121.8528010  62.0339930  52.4850040 121.5649710  62.4952620  53.2727920
 122.6480180  61.5737700  52.7534260 114.0696410  65.5266050  52.4154010
 114.0606510  66.2595740  51.7998520 113.1494770  65.2797630  52.5080970
 109.6703050  60.7480940  53.1600770 109.0631000  61.4879840  53.1696070
 110.1452400  60.8380300  52.3338970 122.6097870  53.8688700  53.6445220
 121.9811030  53.9734370  52.9303450 122.1149790  54.0885480  54.4339100
 117.0556010  65.5894290  51.0779200 117.1567990  65.3858280  50.1481180
 116.1557750  65.3352570  51.2826980 114.5781900  56.1474650  55.0603100
 113.8698050  56.6160990  55.5016710 114.8626380  55.4896660  55.6948290
 118.6097330  52.8725310  56.4998890 118.4865110  52.8911440  55.5508400
 119.5581890  52.9204250  56.6197290 115.6974120  68.1080610  55.7726870
 115.9515620  68.0702000  54.8506240 114.7486600  67.9813940  55.7655120
 112.7816920  54.4559730  52.4353810 113.6307450  54.8929880  52.3694000
 112.4148190  54.7679990  53.2625870 121.7026700  59.0272490  57.3485380
 120.7616840  59.0422720  57.5233070 122.0170770  58.2408450  57.7945680
 111.6808340  60.7092090  50.9089340 112.4471610  60.5973450  51.4714770
 111.7583030  60.0130060  50.2566110 110.3755100  58.1417160  51.5922230
 110.4558690  57.1944670  51.7039630 111.2674850  58.4724040  51.6982890
 123.7052280  66.1981340  59.0239640 123.8299700  67.0212510  59.4963450
 124.5717840  65.9872070  58.6763790 111.1769810  68.2912550  58.6956770
 111.9132290  67.7428010  58.9665340 111.5610730  69.1568560  58.5562760
 108.0615290  64.3586120  54.5698280 107.1355070  64.6007260  54.5603690
 108.5271720  65.1860380  54.4483030 114.2872120  67.4642860  50.5182340
 115.0800730  67.7531690  50.0664130 113.7676470  67.0335030  49.8394820
 123.3402290  66.6912990  51.9419080 123.0543800  66.2778130  51.1273260
 123.1421840  67.6200700  51.8219600 114.8049520  62.6846270  50.3824690
 114.7000160  62.0698620  51.1086070 114.6373740  62.1612160  49.5987700
 118.0452250  61.7466300  50.9866680 117.4962350  62.1935600  51.6309420
 118.6671510  61.2415550  51.5104350 113.7127370  60.7057220  52.8831980
 114.1343790  60.5397090  53.7263370 113.8378210  59.8957450  52.3887120
 116.2255010  59.7294830  50.1309080 116.7460670  59.0143850  49.7650230
 116.8723410  60.3680700  50.4309590 112.6086270  56.7790450  49.8290140
 112.4075330  55.9157810  50.1903480 112.4378320  56.6923810  48.8911740
 120.0874580  51.5898680  52.3577020 120.3676870  50.7466580  52.7136440
 119.3140310  51.8221790  52.8715770 111.4069070  53.8791070  49.8168020
 111.7094970  53.8858500  48.9087170 112.1463660  53.5288930  50.3135680
 114.6254000  52.8225690  50.8024220 114.2776000  52.1449680  50.2226670
 114.8266770  52.3615200  51.6167610 116.7903040  67.8106440  52.4210820
 117.6853830  68.1491410  52.4429580 116.8220670  67.0885850  51.7935100
 110.4299200  63.1833490  50.6497820 110.8674070  63.7263160  51.3055400
 110.9146930  62.3580440  50.6594160 107.6445000  65.9722520  58.1018080
 107.9748010  65.1043580  57.8696720 108.0736000  66.1781040  58.9323040
 112.2406920  64.3031530  55.7620050 111.9402460  64.1796500  56.6623960
 112.1344410  63.4440120  55.3535780 125.0098840  64.0827930  50.4646730
 124.1791800  64.1504580  50.9353960 125.1870670  64.9732050  50.1613590
 124.4655300  60.8275410  52.9680930 125.2274210  61.3972060  53.0740620
 124.4809670  60.2602610  53.7389240 107.9659640  59.3513340  57.1988590
 107.3108480  59.0824980  56.5548290 108.8037590  59.2417820  56.7490570
 125.4715270  61.6825510  57.8122860 125.8424100  60.8992830  57.4058830
 126.1117200  62.3714610  57.6340160 124.5174470  61.1209780  50.1253450
 124.7923310  62.0288660  49.9972670 124.3285210  61.0572310  51.0615440
 120.9150080  54.1454630  51.4207080 121.3334960  53.9585610  50.5803740
 120.6086140  53.2933680  51.7310010 124.4139810  59.0578770  55.1182880
 124.0383410  58.2906700  54.6864170 123.6842930  59.4401470  55.6057810
 107.1797720  56.5612270  53.1413920 106.2761800  56.8242470  52.9665580
 107.6638340  56.8323440  52.3613880 123.6890770  57.2836260  58.4190120
 124.2128250  56.7898910  57.7880290 124.2750190  57.4186620  59.1637690
 109.7224930  55.6177810  51.0508300 110.4316630  55.1961030  50.5655580
 109.0064870  55.6853040  50.4191650 109.3699090  51.6717140  50.0910950
 110.0927220  52.2126080  50.4092170 109.6423610  51.3980560  49.2152490
 123.1790740  56.5409610  54.3582530 123.6749860  56.3080480  55.1431410
 122.9806810  55.7021450  53.9420170 124.6077900  55.1770560  56.8920210
 124.4977180  55.0226600  57.8302480 125.3685490  54.6491500  56.6495620
 125.5706660  53.7789140  52.7583060 124.7758160  53.7134260  53.2875970
 125.7749940  54.7139780  52.7468410 122.5125080  67.8180690  56.7521450
 123.1084150  67.4965260  56.0755870 122.7703230  67.3452510  57.5434720
 113.4933010  66.7764230  59.7567310 114.0098030  66.1651590  59.2315570
 114.1430390  67.2793010  60.2478320 122.0026590  52.1086020  59.2081890
 122.4434680  52.0531120  58.3603490 121.7334180  53.0244030  59.2792070
 123.8665160  51.7401260  57.2190710 123.8053560  50.7962480  57.0721730
 124.6457190  51.8481350  57.7644170 108.1717910  67.8793620  56.1814660
 108.0039950  67.2464300  56.8796550 107.3052420  68.0853020  55.8308850
 108.7945930  51.7110400  53.6846520 109.5525290  51.8239280  53.1110550
 108.3323100  52.5479600  53.6389950 115.3359740  53.8249670  56.6748830
 114.5234250  53.4506560  56.3344710 115.8401380  53.0694750  56.9770020
 119.8384720  50.4892120  57.9131900 120.4414090  51.0612330  58.3880420
 119.0977710  51.0531560  57.6905800 122.9819320  50.8913680  53.1872180
 123.1769950  51.7897130  53.4539610 122.1949190  50.6600760  53.6805130
 109.7780610  66.5726850  53.6264800 109.2528230  66.9534880  52.9226760
 109.7025190  67.1977620  54.3474510 111.1671080  52.2374450  52.2248490
 111.6963840  51.4504250  52.0956440 111.7999400  52.9165640  52.4584020
 113.3608920  51.9749590  55.2793880 112.7311660  51.2736900  55.4464010
 112.8214060  52.7353720  55.0627040 124.5345930  68.1314390  54.9478740
 124.7098120  67.4452130  54.3039660 123.8367500  68.6561440  54.5555410
 112.3773580  68.5209230  52.5014050 113.1092400  68.2368510  51.9537940
 112.6367250  68.2822510  53.3913430 111.5388370  64.6373960  52.5060380
 110.9097250  65.1059060  53.0546210 111.6536200  63.7923180  52.9406570
 118.9938090  58.6879620  38.6561580 118.9132140  57.7734230  38.3853290
 118.5802510  59.1846690  37.9501290 117.1256130  60.4658640  40.5370850
 116.3498230  59.9859080  40.8269420 117.7769060  59.7864290  40.3627010
 111.1421960  60.7778450  41.4146610 110.3106840  60.5227160  41.8143120
 111.7502940  60.8489220  42.1504530 121.1463560  64.8718830  39.3169980
 120.6845090  64.1006070  39.6457150 121.9589110  64.8984900  39.8222430
 111.1223220  64.8118540  41.6104630 111.4251260  63.9216280  41.4314850
 111.8666810  65.3688760  41.3826880 109.5513910  55.7380340  35.1989000
 108.6630610  56.0796310  35.0968880 109.8355100  55.5380660  34.3069830
 117.3726870  67.1576840  38.9373970 116.7538310  67.6134340  38.3668410
 118.2278650  67.3128300  38.5363670 116.5665120  63.1415830  40.5441010
 116.4973400  62.2005770  40.3830140 117.3284980  63.2317240  41.1163580
 117.5970290  55.9486210  40.7709940 117.9735110  55.0758090  40.6583610
 117.4989800  56.2844910  39.8800380 111.7275300  54.3211840  36.2327380
 111.8342050  55.2215570  36.5396140 110.8167660  54.2729810  35.9422030
 121.3794410  53.4436650  37.7038280 122.2004030  52.9533220  37.7463760
 121.4128490  54.0334310  38.4570120 113.5683030  57.2898210  40.5652560
 114.0761250  57.7879180  41.2057580 114.0996270  56.5133410  40.3891920
 125.6693960  55.4603400  44.2681910 124.9646130  55.8485110  43.7497020
 125.9351880  56.1553690  44.8702840 118.2390220  62.0416080  36.3305880
 117.6207490  62.5065530  35.7668600 118.7513470  62.7343560  36.7475390
 113.1021980  61.5691950  43.0089480 112.7691360  62.1960870  43.6510550
 113.2788660  62.0953830  42.2291150 121.6155890  55.3837030  40.4765820
 120.9111460  55.6721920  41.0568930 121.9768050  56.1937140  40.1165380
 112.3141080  63.5372750  44.8238660 112.9315080  64.2123830  44.5423110
 111.4534200  63.9460730  44.7326160 107.6073420  62.7272610  33.7045510
 107.2301400  63.2159710  32.9730410 107.8646490  63.3997890  34.3352040
 123.2318670  65.0012160  42.7393300 122.5482190  65.6711270  42.7309970
 123.7712960  65.1992810  41.9738160 124.6842810  54.8291820  40.8675030
 123.7367720  54.8630800  40.9990460 125.0092800  55.6430770  41.2524390
 115.2162350  51.1289000  39.1631020 115.5237330  50.5735890  38.4466520
 114.2863050  51.2633460  38.9804010 120.7677410  66.8456290  41.4538480
 120.7804570  66.4418580  40.5860740 120.2152630  67.6203580  41.3499910
 122.0622830  63.5672510  36.5428650 121.9519160  62.6246840  36.6678070
 122.0591080  63.9288150  37.4291410 120.1662850  61.7486130  42.7821090
 120.5831640  61.5346240  41.9474550 120.8902670  62.0058920  43.3529710
 117.6043110  59.1937830  35.8991140 116.6772390  59.1275210  36.1279610
 117.7567930  60.1317960  35.7846380 117.5912190  55.4654830  32.8958300
 116.6515860  55.6268790  32.9810760 117.9095450  56.1840510  32.3494290
 124.1124950  60.1473350  42.8737330 123.2843580  60.2166440  42.3987460
 124.7075430  60.7327660  42.4053160 121.6340400  60.7558130  36.4026390
 121.0152820  60.4177680  35.7552690 121.6164850  60.1117890  37.1105580
 121.0766960  56.9342670  43.8192200 120.6638140  57.7596380  44.0732190
 120.3442910  56.3487710  43.6268560 113.2099750  59.7202570  38.6810870
 112.8056750  59.0079820  38.1856770 113.2962870  59.3755810  39.5698910
 113.6781450  63.4070130  40.8450080 113.3809740  62.8015600  40.1657860
 114.6281270  63.4447440  40.7339440 111.9228370  56.4945780  42.4609910
 112.4742960  56.6041120  41.6863160 112.4371880  56.8683380  43.1765140
 121.7667060  66.9802000  44.5073180 121.2897620  67.7874190  44.3145790
 121.0828850  66.3280330  44.6599390 112.7699880  63.1451820  47.4957880
 111.8728410  63.3691790  47.7431280 112.7952750  63.2686760  46.5469280
 119.8105100  59.9944940  33.4099140 120.2498380  59.1567370  33.2636960
 120.5233520  60.6274340  33.4963280 111.5971100  60.0165140  46.0715250
 111.4578870  60.8887940  46.4402650 110.7152460  59.6737950  45.9263190
 117.9200480  64.9341010  37.3780380 118.3596390  65.6765340  36.9635770
 117.8587370  65.1767580  38.3019340 113.3951450  65.9586840  48.2800400
 113.3666880  66.3629790  47.4128830 113.2316420  65.0297200  48.1172000
 109.9104380  58.6147550  36.1817520 109.7901980  59.3409640  35.5698790
 109.6005270  57.8450460  35.7045430 125.3466270  66.7413940  49.5764570
 125.8225990  67.2196830  50.2553650 125.9673430  66.6731430  48.8510070
 108.7937380  63.4862880  38.3992340 108.3865460  63.6277470  37.5445940
 109.6850390  63.2023040  38.1963550 124.7499520  63.9326790  46.7364580
 124.8762580  63.6938670  45.8181760 124.7920900  63.1011330  47.2086660
 118.6116260  67.6354790  45.3059390 119.1260930  67.5462800  46.1081820
 117.7685340  67.9814490  45.5987300 120.5870660  67.9210130  34.7343390
 120.4271800  67.6313070  35.6325220 120.4217370  67.1450260  34.1988620
 113.0659040  67.7008660  36.5115010 112.8901520  66.7844200  36.2982810
 112.2114780  68.0595950  36.7512810 120.2896790  65.4297690  33.2941390
 119.5961950  65.4274980  32.6343670 121.0319650  65.0057010  32.8635560
 119.8546720  67.0560400  37.3689880 120.3103670  66.2749780  37.6828500
 120.1939240  67.7667220  37.9131060 124.6023530  55.9859250  47.7014320
 123.9867800  56.4938920  47.1729780 124.2819950  55.0857580  47.6440260
 107.6049270  62.8276860  44.5280620 107.7680310  62.3582220  43.7099990
 108.0701720  62.3200420  45.1929460 112.3768040  51.9582620  39.5641190
 111.9336190  52.7392160  39.2325710 112.9353030  52.2812510  40.2712130
 116.6637850  54.8251140  45.1676510 116.2017220  55.0334160  45.9796450
 116.2615960  54.0110490  44.8647180 121.6642360  56.0460090  46.2973170
 120.8135950  55.7465840  46.6182240 121.5044150  56.2902100  45.3856990
 118.7592070  57.5461840  48.3971960 119.0845480  56.7125590  48.0574190
 119.5472400  58.0690360  48.5450290 114.4143940  52.5029950  41.4230790
 114.7116270  53.4092780  41.3422810 114.9629500  52.0148730  40.8090360
 112.1682260  57.0816190  37.2922440 111.9423180  56.8653360  38.1969060
 111.3874790  57.5144650  36.9468410 119.3980020  57.0879560  35.8913090
 118.7988910  57.8115360  35.7076710 119.9459630  57.0256340  35.1089540
 114.6081470  57.9801770  47.9582710 114.5125070  57.0396500  47.8083110
 115.4513450  58.2016840  47.5630780 118.0044890  55.7243100  37.9216370
 118.3974460  56.0415300  37.1085060 118.3661740  54.8454980  38.0360890
 116.3137060  54.4750410  49.1813230 115.6235380  54.2822610  49.8159320
 117.0569360  54.7585050  49.7137530 118.5900030  58.3148850  42.0167150
 117.8581150  58.8235660  42.3657250 118.1924370  57.4978830  41.7155930
 115.0277420  54.9903050  40.4219640 115.0313480  54.5493000  39.5724180
 115.9228540  55.3120380  40.5291460 110.8779800  54.8729540  39.3813850
 110.5379850  55.3504770  40.1380900 110.1157120  54.4194660  39.0214950
 115.0897570  55.9915130  33.4126400 115.2110390  55.9501610  34.3612220
 114.7046080  56.8539280  33.2573130 119.0525940  53.7682530  41.4290090
 119.0698680  54.2191180  42.2731940 118.8041520  52.8688170  41.6423530
 114.1019070  58.3016270  32.8109700 113.5335970  57.8534520  32.1845610
 114.8108070  58.6609050  32.2774850 122.4796690  51.1814710  47.2676470
 122.8042460  50.4504370  47.7934450 122.5153200  50.8628350  46.3657460
 109.1788250  62.2028290  46.6876430 108.7943040  61.5621960  47.2859390
 109.4900440  62.9064410  47.2571160 115.3285390  59.0504830  42.1685050
 115.6955520  58.5763400  42.9146390 115.1390450  59.9246400  42.5093390
 108.1925880  53.7948520  38.2978520 107.9072800  53.4304190  39.1357140
 108.1304740  53.0628980  37.6841660 113.1184760  58.0913470  44.4869260
 112.8141830  58.9705450  44.7119620 114.0731220  58.1513260  44.5226700
 111.6466550  62.2974460  35.0836110 110.8728810  61.7572080  34.9234830
 112.3761180  61.7781070  34.7453870 122.4054530  61.2939820  40.8762500
 123.1253650  61.7895110  40.4858610 122.2036350  60.6157710  40.2316370
 117.8664470  52.6877780  35.0191890 117.0529080  52.1890950  34.9437200
 117.6726420  53.5276030  34.6028240 117.7873330  61.3648880  46.7631500
 117.7210640  60.4444550  46.5089090 117.1578470  61.4624320  47.4776140
 120.5812860  57.0597430  33.3154050 121.4692480  57.3714660  33.1405390
 120.5517950  56.1869680  32.9234630 111.6903950  61.9654840  38.7214920
 112.2082620  61.1623100  38.6671810 111.2387970  61.9033980  39.5631750
 116.5773450  63.2321120  33.9942220 116.9189150  63.9763350  33.4985540
 115.7486160  63.5452240  34.3567050 109.1748490  58.9316210  45.6340620
 108.8163430  59.5970060  46.2213960 108.8803050  58.0999760  46.0053240
 112.3761610  59.3900450  48.5180170 112.0761750  59.5357630  47.6207990
 113.1472850  58.8305740  48.4253560 117.7190060  64.1869450  46.5135300
 117.7334600  63.2550410  46.2954210 117.0115160  64.2729210  47.1525070
 122.8527130  58.3709270  32.7833910 122.7690850  58.8023490  31.9330350
 123.5721320  58.8307620  33.2160730 123.9301270  60.8276790  45.8603880
 123.2049460  61.4205570  45.6633270 124.4576730  60.8200330  45.0617250
 123.8814380  65.2251530  35.5116040 123.2390540  64.5707150  35.7859760
 123.4945040  65.6306620  34.7356710 119.4600860  62.5536960  39.3587730
 119.8124680  61.9565090  38.6989100 118.5763190  62.2281190  39.5295980
 115.5464140  63.3134650  36.7658140 116.2335270  63.8603860  37.1465730
 114.7596560  63.8575380  36.8007750 107.6856540  58.9307470  32.2575220
 108.5551390  59.2132270  32.5411140 107.1946860  59.7443340  32.1424030
 114.8491350  60.3180680  36.3783500 115.3054130  61.1285930  36.6043690
 114.4979560  60.0003820  37.2101990 117.1523960  65.8287020  43.6075800
 117.7966180  66.0346400  44.2849220 117.5153400  65.0675420  43.1546650
 118.4256040  63.8319370  42.3253250 119.0678270  63.1312530  42.4385420
 118.9505390  64.6117810  42.1450140 122.2711760  64.1167990  32.0492390
 122.0449340  63.3998430  32.6417030 121.8807960  63.8680430  31.2114140
 120.1993660  64.6314270  45.5289310 120.5349900  65.2180960  46.2067230
 119.2794000  64.5006980  45.7587100 108.0527790  68.1434850  32.8236850
 108.4125430  68.7424190  32.1694120 107.9120130  68.6894740  33.5971880
 121.8528010  62.0339930  33.7106550 121.5649710  62.4952620  34.4984430
 122.6480180  61.5737700  33.9790770 108.0369650  66.4089710  47.2979250
 108.1460770  65.4684450  47.1574640 107.3850210  66.6744460  46.6492980
 116.0282240  64.6805600  48.6977370 115.7079110  63.9614840  49.2423060
 115.3540600  65.3560670  48.7713430 114.0696410  65.5266050  33.6410520
 114.0606510  66.2595740  33.0255030 113.1494770  65.2797630  33.7337480
 109.6703050  60.7480940  34.3857280 109.0631000  61.4879840  34.3952580
 110.1452400  60.8380300  33.5595480 119.2435840  54.9131760  44.0614170
 119.6116660  54.0926970  44.3893740 118.3834040  54.9733650  44.4769820
 122.6097870  53.8688700  34.8701730 121.9811030  53.9734370  34.1559960
 122.1149790  54.0885480  35.6595610 117.0556010  65.5894290  32.3035710
 117.1567990  65.3858280  31.3737690 116.1557750  65.3352570  32.5083490
 114.5781900  56.1474650  36.2859610 113.8698050  56.6160990  36.7273220
 114.8626380  55.4896660  36.9204800 116.2037830  57.5671350  44.2852140
 116.7023080  58.0417170  44.9503990 116.3460780  56.6434870  44.4922170
 118.6097330  52.8725310  37.7255400 118.4865110  52.8911440  36.7764910
 119.5581890  52.9204250  37.8453800 115.6974120  68.1080610  36.9983380
 115.9515620  68.0702000  36.0762750 114.7486600  67.9813940  36.9911630
 112.7816920  54.4559730  33.6610320 113.6307450  54.8929880  33.5950510
 112.4148190  54.7679990  34.4882380 123.4104690  53.7839310  45.1280530
 122.9078290  54.5244710  45.4674340 124.2261350  54.1723310  44.8117320
 121.7026700  59.0272490  38.5741890 120.7616840  59.0422720  38.7489580
 122.0170770  58.2408450  39.0202190 111.6808340  60.7092090  32.1345850
 112.4471610  60.5973450  32.6971280 111.7583030  60.0130060  31.4822620
 110.3755100  58.1417160  32.8178740 110.4558690  57.1944670  32.9296140
 111.2674850  58.4724040  32.9239400 123.7052280  66.1981340  40.2496150
 123.8299700  67.0212510  40.7219960 124.5717840  65.9872070  39.9020300
 111.1769810  68.2912550  39.9213280 111.9132290  67.7428010  40.1921850
 111.5610730  69.1568560  39.7819270 108.0615290  64.3586120  35.7954790
 107.1355070  64.6007260  35.7860200 108.5271720  65.1860380  35.6739540
 110.1828090  67.4758620  49.1098860 110.9840820  67.7970670  49.5234260
 109.6679910  67.1154200  49.8318770 114.2872120  67.4642860  31.7438850
 115.0800730  67.7531690  31.2920640 113.7676470  67.0335030  31.0651330
 119.0192720  63.5838490  49.0574270 118.4130880  63.6070090  48.3170020
 118.7146830  62.8521530  49.5941520 120.4493090  67.3118780  47.6683680
 121.4014840  67.2276800  47.6183920 120.3021310  67.9760490  48.3417470
 123.3402290  66.6912990  33.1675590 123.0543800  66.2778130  32.3529770
 123.1421840  67.6200700  33.0476110 107.9025900  59.9632080  48.0534910
 108.4064920  59.3839360  48.6251140 107.1633320  60.2472310  48.5911280
 114.8049520  62.6846270  31.6081200 114.7000160  62.0698620  32.3342580
 114.6373740  62.1612160  30.8244210 114.9563840  61.3703070  47.5870430
 114.1909510  61.9388070  47.5025100 115.1379800  61.0779280  46.6938660
 118.0452250  61.7466300  32.2123190 117.4962350  62.1935600  32.8565930
 118.6671510  61.2415550  32.7360860 122.0987190  63.1008400  48.1445450
 122.8396660  63.4384160  47.6412910 121.3359870  63.2700460  47.5915220
 109.9348980  58.1061670  48.9484980 109.9754320  57.8075540  49.8570210
 110.7894480  58.5069280  48.7892500 113.7127370  60.7057220  34.1088490
 114.1343790  60.5397090  34.9519880 113.8378210  59.8957450  33.6143630
 111.8754790  56.6853770  46.9159470 111.3451250  56.1944720  46.2882810
 112.5442860  57.1137970  46.3817400 116.2255010  59.7294830  31.3565590
 116.7460670  59.0143850  30.9906740 116.8723410  60.3680700  31.6566100
 120.7732850  61.1523230  46.6800660 121.1873870  61.3068310  47.5291080
 119.8383850  61.2778450  46.8426440 121.2455020  58.4919390  48.6839810
 121.8275790  57.7371710  48.5960290 121.4216790  59.0226830  47.9071290
 112.3627090  53.6516140  46.9956760 112.2683960  53.0336890  46.2707630
 111.7824480  54.3782430  46.7686670 115.1288530  52.2089380  44.0284150
 114.6805830  52.2313640  43.1829700 114.4953730  51.8108400  44.6254450
 115.5348080  61.1043710  44.6496590 115.9536190  61.9476440  44.4772830
 114.6156710  61.2415750  44.4203370 117.8711980  58.8359890  46.0334430
 117.9908190  58.2401030  46.7729270 118.7305980  58.8729580  45.6135730
 120.2099880  59.3897080  44.6096940 119.6835100  59.9139700  44.0062080
 120.5531220  60.0224470  45.2406670 112.6086270  56.7790450  31.0546650
 112.4075330  55.9157810  31.4159990 112.4378320  56.6923810  30.1168250
 113.3855500  67.4096720  45.7654320 112.8476590  68.1342780  45.4463020
 113.6389460  66.9327060  44.9751660 114.6380750  55.3781240  47.2910250
 115.2280440  55.0697090  47.9788070 113.8200990  54.9060990  47.4470150
 119.4574180  54.9947050  47.5243270 118.7689700  54.3328590  47.4593260
 120.1780200  54.5485320  47.9691730 116.2417710  68.6447930  46.0240970
 116.1676410  69.5483070  46.3313340 115.3396550  68.3259830  45.9963040
 114.6254000  52.8225690  32.0280730 114.2776000  52.1449680  31.4483180
 114.8266770  52.3615200  32.8424120 116.7903040  67.8106440  33.6467330
 117.6853830  68.1491410  33.6686090 116.8220670  67.0885850  33.0191610
 110.4299200  63.1833490  31.8754330 110.8674070  63.7263160  32.5311910
 110.9146930  62.3580440  31.8850670 107.6445000  65.9722520  39.3274590
 107.9748010  65.1043580  39.0953230 108.0736000  66.1781040  40.1579550
 112.2406920  64.3031530  36.9876560 111.9402460  64.1796500  37.8880470
 112.1344410  63.4440120  36.5792290 108.1335210  66.8393110  42.0656220
 107.6966200  67.0193910  42.8980370 108.7012890  67.5967730  41.9237940
 123.7697390  66.3410110  46.3533530 123.1699380  66.4002670  45.6097450
 123.8991290  65.4015090  46.4830380 125.0098840  64.0827930  31.6903240
 124.1791800  64.1504580  32.1610470 125.1870670  64.9732050  31.3870100
 124.4655300  60.8275410  34.1937440 125.2274210  61.3972060  34.2997130
 124.4809670  60.2602610  34.9645750 107.9659640  59.3513340  38.4245100
 107.3108480  59.0824980  37.7804800 108.8037590  59.2417820  37.9747080
 125.4715270  61.6825510  39.0379370 125.8424100  60.8992830  38.6315340
 126.1117200  62.3714610  38.8596670 122.4549030  63.0662090  44.4509690
 121.6408870  63.4959250  44.7135480 122.8623230  63.6780500  43.8378740
 124.5174470  61.1209780  31.3509960 124.7923310  62.0288660  31.2229180
 124.3285210  61.0572310  32.2871950 120.9150080  54.1454630  32.6463590
 121.3334960  53.9585610  31.8060250 120.6086140  53.2933680  32.9566520
 124.4139810  59.0578770  36.3439390 124.0383410  58.2906700  35.9120680
 123.6842930  59.4401470  36.8314320 123.8039430  58.2050290  45.9778910
 123.5725520  57.9763040  45.0776860 124.0643980  59.1249840  45.9323800
 108.5551570  56.6475000  46.8706860 107.6607620  56.6141760  47.2100570
 109.0949120  56.8461790  47.6358110 122.2427500  53.4306720  48.7558610
 123.1197680  53.4390120  49.1392610 122.2548340  52.6937560  48.1450960
 107.1797720  56.5612270  34.3670430 106.2761800  56.8242470  34.1922090
 107.6638340  56.8323440  33.5870390 123.6890770  57.2836260  39.6446630
 124.2128250  56.7898910  39.0136800 124.2750190  57.4186620  40.3894200
 123.8680490  57.3676130  43.1666180 122.9183200  57.3339670  43.2811170
 124.0493500  58.2776240  42.9315950 123.1790740  56.5409610  35.5839040
 123.6749860  56.3080480  36.3687920 122.9806810  55.7021450  35.1676680
 124.6077900  55.1770560  38.1176720 124.4977180  55.0226600  39.0558990
 125.3685490  54.6491500  37.8752130 122.9543620  51.1164690  44.5759720
 123.5915840  51.7298830  44.9418910 123.1018510  51.1525350  43.6308950
 125.4968170  53.0078480  31.3582860 126.4217480  52.8759660  31.1501150
 125.4743960  53.0871300  32.3119310 125.5706660  53.7789140  33.9839570
 124.7758160  53.7134260  34.5132480 125.7749940  54.7139780  33.9724920
 122.5125080  67.8180690  37.9777960 123.1084150  67.4965260  37.3012380
 122.7703230  67.3452510  38.7691230 110.4187650  64.2498600  48.1268590
 110.3757280  63.8791510  49.0083050 110.5498660  65.1876170  48.2670410
 114.1193680  65.8058190  43.7278310 113.8785040  66.0732750  42.8408830
 115.0596320  65.9763920  43.7829170 116.3248100  52.2690880  47.4834820
 116.2636990  52.8612710  48.2330230 117.2648480  52.1616840  47.3385080
 118.9622660  51.9260940  47.1227110 119.5763070  52.2440230  46.4608190
 119.5072220  51.4409530  47.7422970 125.3797840  67.8252570  44.5288950
 124.8856120  68.2221440  43.8116080 124.7711130  67.2001780  44.9226230
 110.2575680  67.1960850  45.2466370 109.6636000  67.0645550  45.9856410
 110.2499520  66.3598990  44.7808470 119.7030700  50.4893080  43.4496400
 118.8290540  50.8228190  43.2469330 119.5941450  50.0166260  44.2748270
 120.6102680  52.6963950  44.8338120 120.2816040  51.8815710  44.4539850
 121.5584980  52.6533760  44.7103810 123.0637290  68.4675990  41.8075690
 122.6040260  69.2191800  41.4333710 122.4349750  67.7482460  41.7490490
 109.8887910  64.5619230  44.1974410 109.1621970  63.9424520  44.1300360
 109.9497060  64.9559840  43.3272490 113.4933010  66.7764230  40.9823820
 114.0098030  66.1651590  40.4572080 114.1430390  67.2793010  41.4734830
 116.2328510  67.6672720  41.8092800 116.5206320  67.4127020  40.9325810
 116.7451730  67.1150080  42.3998370 117.4505520  51.4062920  42.3889310
 116.6677310  51.8808420  42.6686070 117.1568450  50.5017750  42.2802490
 122.0026590  52.1086020  40.4338400 122.4434680  52.0531120  39.5860000
 121.7334180  53.0244030  40.5048580 123.8665160  51.7401260  38.4447220
 123.8053560  50.7962480  38.2978240 124.6457190  51.8481350  38.9900680
 108.1717910  67.8793620  37.4071170 108.0039950  67.2464300  38.1053060
 107.3052420  68.0853020  37.0565360 115.3359740  53.8249670  37.9005340
 114.5234250  53.4506560  37.5601220 115.8401380  53.0694750  38.2026530
 119.8384720  50.4892120  39.1388410 120.4414090  51.0612330  39.6136930
 119.0977710  51.0531560  38.9162310 109.7780610  66.5726850  34.8521310
 109.2528230  66.9534880  34.1483270 109.7025190  67.1977620  35.5731020
 113.3608920  51.9749590  36.5050390 112.7311660  51.2736900  36.6720520
 112.8214060  52.7353720  36.2883550 116.3000870  68.5888820  49.1761000
 117.2268180  68.3533090  49.2196960 116.2851300  69.4160820  48.6947030
 124.5345930  68.1314390  36.1735250 124.7098120  67.4452130  35.5296170
 123.8367500  68.6561440  35.7811920 113.4864480  51.2533570  48.9402880
 113.2048750  51.7567170  48.1763700 113.8684180  50.4555320  48.5745010
 112.3773580  68.5209230  33.7270560 113.1092400  68.2368510  33.1794450
 112.6367250  68.2822510  34.6169940 111.5388370  64.6373960  33.7316890
 110.9097250  65.1059060  34.2802720 111.6536200  63.7923180  34.1663080
 120.0879940  50.6687150  49.5183350 119.9745390  50.9881760  50.4134870
 120.9049680  51.0699660  49.2220630 122.8678430  67.8158680  49.0002040
 123.6603750  67.3207910  48.7928000 123.1611580  68.4948820  49.6077650
 118.9938090  58.6879620  19.8818090 118.9132140  57.7734230  19.6109800
 118.5802510  59.1846690  19.1757800 117.1256130  60.4658640  21.7627360
 116.3498230  59.9859080  22.0525930 117.7769060  59.7864290  21.5883520
 111.1421960  60.7778450  22.6403120 110.3106840  60.5227160  23.0399630
 111.7502940  60.8489220  23.3761040 121.1463560  64.8718830  20.5426490
 120.6845090  64.1006070  20.8713660 121.9589110  64.8984900  21.0478940
 111.1223220  64.8118540  22.8361140 111.4251260  63.9216280  22.6571360
 111.8666810  65.3688760  22.6083390 109.5513910  55.7380340  16.4245510
 108.6630610  56.0796310  16.3225390 109.8355100  55.5380660  15.5326340
 107.5146920  58.3385990  22.3085210 108.0863030  57.5708190  22.3088850
 107.5148460  58.6374750  21.3991820 117.3726870  67.1576840  20.1630480
 116.7538310  67.6134340  19.5924920 118.2278650  67.3128300  19.7620180
 116.5665120  63.1415830  21.7697520 116.4973400  62.2005770  21.6086650
 117.3284980  63.2317240  22.3420090 117.5970290  55.9486210  21.9966450
 117.9735110  55.0758090  21.8840120 117.4989800  56.2844910  21.1056890
 111.7275300  54.3211840  17.4583890 111.8342050  55.2215570  17.7652650
 110.8167660  54.2729810  17.1678540 121.3794410  53.4436650  18.9294790
 122.2004030  52.9533220  18.9720270 121.4128490  54.0334310  19.6826630
 113.5683030  57.2898210  21.7909070 114.0761250  57.7879180  22.4314090
 114.0996270  56.5133410  21.6148430 125.6693960  55.4603400  25.4938420
 124.9646130  55.8485110  24.9753530 125.9351880  56.1553690  26.0959350
 118.2390220  62.0416080  17.5562390 117.6207490  62.5065530  16.9925110
 118.7513470  62.7343560  17.9731900 113.1021980  61.5691950  24.2345990
 112.7691360  62.1960870  24.8767060 113.2788660  62.0953830  23.4547660
 121.6155890  55.3837030  21.7022330 120.9111460  55.6721920  22.2825440
 121.9768050  56.1937140  21.3421890 111.5334460  53.6406730  24.0642940
 111.8751270  54.4848780  23.7696810 110.5950270  53.7890470  24.1808280
 112.3141080  63.5372750  26.0495170 112.9315080  64.2123830  25.7679620
 111.4534200  63.9460730  25.9582670 107.6073420  62.7272610  14.9302020
 107.2301400  63.2159710  14.1986920 107.8646490  63.3997890  15.5608550
 123.2318670  65.0012160  23.9649810 122.5482190  65.6711270  23.9566480
 123.7712960  65.1992810  23.1994670 124.6842810  54.8291820  22.0931540
 123.7367720  54.8630800  22.2246970 125.0092800  55.6430770  22.4780900
 120.7677410  66.8456290  22.6794990 120.7804570  66.4418580  21.8117250
 120.2152630  67.6203580  22.5756420 122.0622830  63.5672510  17.7685160
 121.9519160  62.6246840  17.8934580 122.0591080  63.9288150  18.6547920
 120.1662850  61.7486130  24.0077600 120.5831640  61.5346240  23.1731060
 120.8902670  62.0058920  24.5786220 117.6043110  59.1937830  17.1247650
 116.6772390  59.1275210  17.3536120 117.7567930  60.1317960  17.0102890
 117.5912190  55.4654830  14.1214810 116.6515860  55.6268790  14.2067270
 117.9095450  56.1840510  13.5750800 124.1124950  60.1473350  24.0993840
 123.2843580  60.2166440  23.6243970 124.7075430  60.7327660  23.6309670
 121.6340400  60.7558130  17.6282900 121.0152820  60.4177680  16.9809200
 121.6164850  60.1117890  18.3362090 121.0766960  56.9342670  25.0448710
 120.6638140  57.7596380  25.2988700 120.3442910  56.3487710  24.8525070
 113.2099750  59.7202570  19.9067380 112.8056750  59.0079820  19.4113280
 113.2962870  59.3755810  20.7955420 113.6781450  63.4070130  22.0706590
 113.3809740  62.8015600  21.3914370 114.6281270  63.4447440  21.9595950
 111.9228370  56.4945780  23.6866420 112.4742960  56.6041120  22.9119670
 112.4371880  56.8683380  24.4021650 121.7667060  66.9802000  25.7329690
 121.2897620  67.7874190  25.5402300 121.0828850  66.3280330  25.8855900
 112.7699880  63.1451820  28.7214390 111.8728410  63.3691790  28.9687790
 112.7952750  63.2686760  27.7725790 119.8105100  59.9944940  14.6355650
 120.2498380  59.1567370  14.4893470 120.5233520  60.6274340  14.7219790
 111.5971100  60.0165140  27.2971760 111.4578870  60.8887940  27.6659160
 110.7152460  59.6737950  27.1519700 117.9200480  64.9341010  18.6036890
 118.3596390  65.6765340  18.1892280 117.8587370  65.1767580  19.5275850
 113.3951450  65.9586840  29.5056910 113.3666880  66.3629790  28.6385340
 113.2316420  65.0297200  29.3428510 123.3922240  51.2487750  12.9496690
 123.0794900  51.3414580  13.8495760 124.1534710  51.8268780  12.8994120
 109.9104380  58.6147550  17.4074030 109.7901980  59.3409640  16.7955300
 109.6005270  57.8450460  16.9301940 125.3466270  66.7413940  30.8021080
 125.8225990  67.2196830  31.4810160 125.9673430  66.6731430  30.0766580
 107.5489750  61.7862690  23.2142670 107.6270170  61.9211460  22.2698390
 108.1631430  61.0778580  23.4070790 108.7937380  63.4862880  19.6248850
 108.3865460  63.6277470  18.7702450 109.6850390  63.2023040  19.4220060
 124.7499520  63.9326790  27.9621090 124.8762580  63.6938670  27.0438270
 124.7920900  63.1011330  28.4343170 118.6116260  67.6354790  26.5315900
 119.1260930  67.5462800  27.3338330 117.7685340  67.9814490  26.8243810
 120.5870660  67.9210130  15.9599900 120.4271800  67.6313070  16.8581730
 120.4217370  67.1450260  15.4245130 113.0659040  67.7008660  17.7371520
 112.8901520  66.7844200  17.5239320 112.2114780  68.0595950  17.9769320
 120.2896790  65.4297690  14.5197900 119.5961950  65.4274980  13.8600180
 121.0319650  65.0057010  14.0892070 119.8546720  67.0560400  18.5946390
 120.3103670  66.2749780  18.9085010 120.1939240  67.7667220  19.1387570
 124.6023530  55.9859250  28.9270830 123.9867800  56.4938920  28.3986290
 124.2819950  55.0857580  28.8696770 107.6049270  62.8276860  25.7537130
 107.7680310  62.3582220  24.9356500 108.0701720  62.3200420  26.4185970
 116.6637850  54.8251140  26.3933020 116.2017220  55.0334160  27.2052960
 116.2615960  54.0110490  26.0903690 121.6642360  56.0460090  27.5229680
 120.8135950  55.7465840  27.8438750 121.5044150  56.2902100  26.6113500
 118.7592070  57.5461840  29.6228470 119.0845480  56.7125590  29.2830700
 119.5472400  58.0690360  29.7706800 115.4926860  51.5793320  15.6703530
 114.8681040  51.5753190  16.3956840 115.4056980  50.7124280  15.2739500
 112.1682260  57.0816190  18.5178950 111.9423180  56.8653360  19.4225570
 111.3874790  57.5144650  18.1724920 119.3980020  57.0879560  17.1169600
 118.7988910  57.8115360  16.9333220 119.9459630  57.0256340  16.3346050
 114.6081470  57.9801770  29.1839220 114.5125070  57.0396500  29.0339620
 115.4513450  58.2016840  28.7887290 118.0044890  55.7243100  19.1472880
 118.3974460  56.0415300  18.3341570 118.3661740  54.8454980  19.2617400
 116.3137060  54.4750410  30.4069740 115.6235380  54.2822610  31.0415830
 117.0569360  54.7585050  30.9394040 107.2279290  56.2564020  12.5805800
 107.1453960  57.1994780  12.7220790 106.8762350  56.1138930  11.7018150
 118.5900030  58.3148850  23.2423660 117.8581150  58.8235660  23.5913760
 118.1924370  57.4978830  22.9412440 110.8779800  54.8729540  20.6070360
 110.5379850  55.3504770  21.3637410 110.1157120  54.4194660  20.2471460
 115.0897570  55.9915130  14.6382910 115.2110390  55.9501610  15.5868730
 114.7046080  56.8539280  14.4829640 114.1019070  58.3016270  14.0366210
 113.5335970  57.8534520  13.4102120 114.8108070  58.6609050  13.5031360
 109.1788250  62.2028290  27.9132940 108.7943040  61.5621960  28.5115900
 109.4900440  62.9064410  28.4827670 115.3285390  59.0504830  23.3941560
 115.6955520  58.5763400  24.1402900 115.1390450  59.9246400  23.7349900
 108.1925880  53.7948520  19.5235030 107.9072800  53.4304190  20.3613650
 108.1304740  53.0628980  18.9098170 113.1184760  58.0913470  25.7125770
 112.8141830  58.9705450  25.9376130 114.0731220  58.1513260  25.7483210
 111.6466550  62.2974460  16.3092620 110.8728810  61.7572080  16.1491340
 112.3761180  61.7781070  15.9710380 122.4054530  61.2939820  22.1019010
 123.1253650  61.7895110  21.7115120 122.2036350  60.6157710  21.4572880
 117.8664470  52.6877780  16.2448400 117.0529080  52.1890950  16.1693710
 117.6726420  53.5276030  15.8284750 117.7873330  61.3648880  27.9888010
 117.7210640  60.4444550  27.7345600 117.1578470  61.4624320  28.7032650
 120.5812860  57.0597430  14.5410560 121.4692480  57.3714660  14.3661900
 120.5517950  56.1869680  14.1491140 111.6903950  61.9654840  19.9471430
 112.2082620  61.1623100  19.8928320 111.2387970  61.9033980  20.7888260
 116.5773450  63.2321120  15.2198730 116.9189150  63.9763350  14.7242050
 115.7486160  63.5452240  15.5823560 109.1748490  58.9316210  26.8597130
 108.8163430  59.5970060  27.4470470 108.8803050  58.0999760  27.2309750
 112.3761610  59.3900450  29.7436680 112.0761750  59.5357630  28.8464500
 113.1472850  58.8305740  29.6510070 117.7190060  64.1869450  27.7391810
 117.7334600  63.2550410  27.5210720 117.0115160  64.2729210  28.3781580
 122.8527130  58.3709270  14.0090420 122.7690850  58.8023490  13.1586860
 123.5721320  58.8307620  14.4417240 123.9301270  60.8276790  27.0860390
 123.2049460  61.4205570  26.8889780 124.4576730  60.8200330  26.2873760
 123.8814380  65.2251530  16.7372550 123.2390540  64.5707150  17.0116270
 123.4945040  65.6306620  15.9613220 119.4600860  62.5536960  20.5844240
 119.8124680  61.9565090  19.9245610 118.5763190  62.2281190  20.7552490
 115.5464140  63.3134650  17.9914650 116.2335270  63.8603860  18.3722240
 114.7596560  63.8575380  18.0264260 107.6856540  58.9307470  13.4831730
 108.5551390  59.2132270  13.7667650 107.1946860  59.7443340  13.3680540
 114.8491350  60.3180680  17.6040010 115.3054130  61.1285930  17.8300200
 114.4979560  60.0003820  18.4358500 117.1523960  65.8287020  24.8332310
 117.7966180  66.0346400  25.5105730 117.5153400  65.0675420  24.3803160
 118.4256040  63.8319370  23.5509760 119.0678270  63.1312530  23.6641930
 118.9505390  64.6117810  23.3706650 122.2711760  64.1167990  13.2748900
 122.0449340  63.3998430  13.8673540 121.8807960  63.8680430  12.4370650
 120.1993660  64.6314270  26.7545820 120.5349900  65.2180960  27.4323740
 119.2794000  64.5006980  26.9843610 108.0527790  68.1434850  14.0493360
 108.4125430  68.7424190  13.3950630 107.9120130  68.6894740  14.8228390
 121.8528010  62.0339930  14.9363060 121.5649710  62.4952620  15.7240940
 122.6480180  61.5737700  15.2047280 108.0369650  66.4089710  28.5235760
 108.1460770  65.4684450  28.3831150 107.3850210  66.6744460  27.8749490
 116.0282240  64.6805600  29.9233880 115.7079110  63.9614840  30.4679570
 115.3540600  65.3560670  29.9969940 114.0696410  65.5266050  14.8667030
 114.0606510  66.2595740  14.2511540 113.1494770  65.2797630  14.9593990
 109.6703050  60.7480940  15.6113790 109.0631000  61.4879840  15.6209090
 110.1452400  60.8380300  14.7851990 122.6097870  53.8688700  16.0958240
 121.9811030  53.9734370  15.3816470 122.1149790  54.0885480  16.8852120
 117.0556010  65.5894290  13.5292220 117.1567990  65.3858280  12.5994200
 116.1557750  65.3352570  13.7340000 114.5781900  56.1474650  17.5116120
 113.8698050  56.6160990  17.9529730 114.8626380  55.4896660  18.1461310
 116.2037830  57.5671350  25.5108650 116.7023080  58.0417170  26.1760500
 116.3460780  56.6434870  25.7178680 115.6974120  68.1080610  18.2239890
 115.9515620  68.0702000  17.3019260 114.7486600  67.9813940  18.2168140
 112.7816920  54.4559730  14.8866830 113.6307450  54.8929880  14.8207020
 112.4148190  54.7679990  15.7138890 123.4104690  53.7839310  26.3537040
 122.9078290  54.5244710  26.6930850 124.2261350  54.1723310  26.0373830
 121.7026700  59.0272490  19.7998400 120.7616840  59.0422720  19.9746090
 122.0170770  58.2408450  20.2458700 111.6808340  60.7092090  13.3602360
 112.4471610  60.5973450  13.9227790 111.7583030  60.0130060  12.7079130
 110.3755100  58.1417160  14.0435250 110.4558690  57.1944670  14.1552650
 111.2674850  58.4724040  14.1495910 123.7052280  66.1981340  21.4752660
 123.8299700  67.0212510  21.9476470 124.5717840  65.9872070  21.1276810
 111.1769810  68.2912550  21.1469790 111.9132290  67.7428010  21.4178360
 111.5610730  69.1568560  21.0075780 108.0615290  64.3586120  17.0211300
 107.1355070  64.6007260  17.0116710 108.5271720  65.1860380  16.8996050
 110.1828090  67.4758620  30.3355370 110.9840820  67.7970670  30.7490770
 109.6679910  67.1154200  31.0575280 114.2872120  67.4642860  12.9695360
 115.0800730  67.7531690  12.5177150 113.7676470  67.0335030  12.2907840
 119.0192720  63.5838490  30.2830780 118.4130880  63.6070090  29.5426530
 118.7146830  62.8521530  30.8198030 120.4493090  67.3118780  28.8940190
 121.4014840  67.2276800  28.8440430 120.3021310  67.9760490  29.5673980
 123.3402290  66.6912990  14.3932100 123.0543800  66.2778130  13.5786280
 123.1421840  67.6200700  14.2732620 107.9025900  59.9632080  29.2791420
 108.4064920  59.3839360  29.8507650 107.1633320  60.2472310  29.8167790
 114.8049520  62.6846270  12.8337710 114.7000160  62.0698620  13.5599090
 114.6373740  62.1612160  12.0500720 114.9563840  61.3703070  28.8126940
 114.1909510  61.9388070  28.7281610 115.1379800  61.0779280  27.9195170
 118.0452250  61.7466300  13.4379700 117.4962350  62.1935600  14.0822440
 118.6671510  61.2415550  13.9617370 122.0987190  63.1008400  29.3701960
 122.8396660  63.4384160  28.8669420 121.3359870  63.2700460  28.8171730
 109.9348980  58.1061670  30.1741490 109.9754320  57.8075540  31.0826720
 110.7894480  58.5069280  30.0149010 113.7127370  60.7057220  15.3345000
 114.1343790  60.5397090  16.1776390 113.8378210  59.8957450  14.8400140
 111.8754790  56.6853770  28.1415980 111.3451250  56.1944720  27.5139320
 112.5442860  57.1137970  27.6073910 116.2255010  59.7294830  12.5822100
 116.7460670  59.0143850  12.2163250 116.8723410  60.3680700  12.8822610
 120.7732850  61.1523230  27.9057170 121.1873870  61.3068310  28.7547590
 119.8383850  61.2778450  28.0682950 121.2455020  58.4919390  29.9096320
 121.8275790  57.7371710  29.8216800 121.4216790  59.0226830  29.1327800
 115.5348080  61.1043710  25.8753100 115.9536190  61.9476440  25.7029340
 114.6156710  61.2415750  25.6459880 117.8711980  58.8359890  27.2590940
 117.9908190  58.2401030  27.9985780 118.7305980  58.8729580  26.8392240
 120.2099880  59.3897080  25.8353450 119.6835100  59.9139700  25.2318590
 120.5531220  60.0224470  26.4663180 112.6086270  56.7790450  12.2803160
 112.4075330  55.9157810  12.6416500 112.4378320  56.6923810  11.3424760
 113.3855500  67.4096720  26.9910830 112.8476590  68.1342780  26.6719530
 113.6389460  66.9327060  26.2008170 114.6380750  55.3781240  28.5166760
 115.2280440  55.0697090  29.2044580 113.8200990  54.9060990  28.6726660
 119.4574180  54.9947050  28.7499780 118.7689700  54.3328590  28.6849770
 120.1780200  54.5485320  29.1948240 120.0874580  51.5898680  14.8090040
 120.3676870  50.7466580  15.1649460 119.3140310  51.8221790  15.3228790
 111.4069070  53.8791070  12.2681040 111.7094970  53.8858500  11.3600190
 112.1463660  53.5288930  12.7648700 116.2417710  68.6447930  27.2497480
 116.1676410  69.5483070  27.5569850 115.3396550  68.3259830  27.2219550
 114.6254000  52.8225690  13.2537240 114.2776000  52.1449680  12.6739690
 114.8266770  52.3615200  14.0680630 116.7903040  67.8106440  14.8723840
 117.6853830  68.1491410  14.8942600 116.8220670  67.0885850  14.2448120
 110.4299200  63.1833490  13.1010840 110.8674070  63.7263160  13.7568420
 110.9146930  62.3580440  13.1107180 107.6445000  65.9722520  20.5531100
 107.9748010  65.1043580  20.3209740 108.0736000  66.1781040  21.3836060
 112.2406920  64.3031530  18.2133070 111.9402460  64.1796500  19.1136980
 112.1344410  63.4440120  17.8048800 108.1335210  66.8393110  23.2912730
 107.6966200  67.0193910  24.1236880 108.7012890  67.5967730  23.1494450
 123.7697390  66.3410110  27.5790040 123.1699380  66.4002670  26.8353960
 123.8991290  65.4015090  27.7086890 125.0098840  64.0827930  12.9159750
 124.1791800  64.1504580  13.3866980 125.1870670  64.9732050  12.6126610
 124.4655300  60.8275410  15.4193950 125.2274210  61.3972060  15.5253640
 124.4809670  60.2602610  16.1902260 107.9659640  59.3513340  19.6501610
 107.3108480  59.0824980  19.0061310 108.8037590  59.2417820  19.2003590
 125.4715270  61.6825510  20.2635880 125.8424100  60.8992830  19.8571850
 126.1117200  62.3714610  20.0853180 122.4549030  63.0662090  25.6766200
 121.6408870  63.4959250  25.9391990 122.8623230  63.6780500  25.0635250
 124.5174470  61.1209780  12.5766470 124.7923310  62.0288660  12.4485690
 124.3285210  61.0572310  13.5128460 120.9150080  54.1454630  13.8720100
 121.3334960  53.9585610  13.0316760 120.6086140  53.2933680  14.1823030
 124.4139810  59.0578770  17.5695900 124.0383410  58.2906700  17.1377190
 123.6842930  59.4401470  18.0570830 109.0035570  59.7365910  24.1904950
 109.3708610  59.6493310  25.0700970 108.4346390  58.9732460  24.0911810
 123.8039430  58.2050290  27.2035420 123.5725520  57.9763040  26.3033370
 124.0643980  59.1249840  27.1580310 107.1797720  56.5612270  15.5926940
 106.2761800  56.8242470  15.4178600 107.6638340  56.8323440  14.8126900
 123.6890770  57.2836260  20.8703140 124.2128250  56.7898910  20.2393310
 124.2750190  57.4186620  21.6150710 123.8680490  57.3676130  24.3922690
 122.9183200  57.3339670  24.5067680 124.0493500  58.2776240  24.1572460
 109.7224930  55.6177810  13.5021320 110.4316630  55.1961030  13.0168600
 109.0064870  55.6853040  12.8704670 109.3699090  51.6717140  12.5423970
 110.0927220  52.2126080  12.8605190 109.6423610  51.3980560  11.6665510
 123.1790740  56.5409610  16.8095550 123.6749860  56.3080480  17.5944430
 122.9806810  55.7021450  16.3933190 124.6077900  55.1770560  19.3433230
 124.4977180  55.0226600  20.2815500 125.3685490  54.6491500  19.1008640
 125.4968170  53.0078480  12.5839370 126.4217480  52.8759660  12.3757660
 125.4743960  53.0871300  13.5375820 125.5706660  53.7789140  15.2096080
 124.7758160  53.7134260  15.7388990 125.7749940  54.7139780  15.1981430
 122.5125080  67.8180690  19.2034470 123.1084150  67.4965260  18.5268890
 122.7703230  67.3452510  19.9947740 110.4187650  64.2498600  29.3525100
 110.3757280  63.8791510  30.2339560 110.5498660  65.1876170  29.4926920
 114.1193680  65.8058190  24.9534820 113.8785040  66.0732750  24.0665340
 115.0596320  65.9763920  25.0085680 125.3797840  67.8252570  25.7545460
 124.8856120  68.2221440  25.0372590 124.7711130  67.2001780  26.1482740
 110.2575680  67.1960850  26.4722880 109.6636000  67.0645550  27.2112920
 110.2499520  66.3598990  26.0064980 123.0637290  68.4675990  23.0332200
 122.6040260  69.2191800  22.6590220 122.4349750  67.7482460  22.9747000
 109.8887910  64.5619230  25.4230920 109.1621970  63.9424520  25.3556870
 109.9497060  64.9559840  24.5529000 113.4933010  66.7764230  22.2080330
 114.0098030  66.1651590  21.6828590 114.1430390  67.2793010  22.6991340
 116.2328510  67.6672720  23.0349310 116.5206320  67.4127020  22.1582320
 116.7451730  67.1150080  23.6254880 123.8665160  51.7401260  19.6703730
 123.8053560  50.7962480  19.5234750 124.6457190  51.8481350  20.2157190
 108.1717910  67.8793620  18.6327680 108.0039950  67.2464300  19.3309570
 107.3052420  68.0853020  18.2821870 108.7945930  51.7110400  16.1359540
 109.5525290  51.8239280  15.5623570 108.3323100  52.5479600  16.0902970
 122.9819320  50.8913680  15.6385200 123.1769950  51.7897130  15.9052630
 122.1949190  50.6600760  16.1318150 109.7780610  66.5726850  16.0777820
 109.2528230  66.9534880  15.3739780 109.7025190  67.1977620  16.7987530
 111.1671080  52.2374450  14.6761510 111.6963840  51.4504250  14.5469460
 111.7999400  52.9165640  14.9097040 116.3000870  68.5888820  30.4017510
 117.2268180  68.3533090  30.4453470 116.2851300  69.4160820  29.9203540
 124.5345930  68.1314390  17.3991760 124.7098120  67.4452130  16.7552680
 123.8367500  68.6561440  17.0068430 112.3773580  68.5209230  14.9527070
 113.1092400  68.2368510  14.4050960 112.6367250  68.2822510  15.8426450
 111.5388370  64.6373960  14.9573400 110.9097250  65.1059060  15.5059230
 111.6536200  63.7923180  15.3919590 122.8678430  67.8158680  30.2258550
 123.6603750  67.3207910  30.0184510 123.1611580  68.4948820  30.8334160
 117.1256130  60.4658640   2.9883870 116.3498230  59.9859080   3.2782440
 117.7769060  59.7864290   2.8140030 111.1421960  60.7778450   3.8659630
 110.3106840  60.5227160   4.2656140 111.7502940  60.8489220   4.6017550
 121.1463560  64.8718830   1.7683000 120.6845090  64.1006070   2.0970170
 121.9589110  64.8984900   2.2735450 111.1223220  64.8118540   4.0617650
 111.4251260  63.9216280   3.8827870 111.8666810  65.3688760   3.8339900
 107.5146920  58.3385990   3.5341720 108.0863030  57.5708190   3.5345360
 107.5148460  58.6374750   2.6248330 116.5665120  63.1415830   2.9954030
 116.4973400  62.2005770   2.8343160 117.3284980  63.2317240   3.5676600
 108.7571790  53.7470350   5.3210650 108.5774630  52.8496100   5.6013410
 108.3551870  54.2942220   5.9957600 117.5970290  55.9486210   3.2222960
 117.9735110  55.0758090   3.1096630 117.4989800  56.2844910   2.3313400
 109.3758460  56.2430850   3.9292990 110.0568570  56.5069220   4.5480390
 109.0606510  55.4031720   4.2631000 113.5683030  57.2898210   3.0165580
 114.0761250  57.7879180   3.6570600 114.0996270  56.5133410   2.8404940
 125.6693960  55.4603400   6.7194930 124.9646130  55.8485110   6.2010040
 125.9351880  56.1553690   7.3215860 111.8519130  51.9296770   7.2829000
 111.8537570  52.4469160   6.4774900 111.0223440  51.4526950   7.2598930
 113.1021980  61.5691950   5.4602500 112.7691360  62.1960870   6.1023570
 113.2788660  62.0953830   4.6804170 121.6155890  55.3837030   2.9278840
 120.9111460  55.6721920   3.5081950 121.9768050  56.1937140   2.5678400
 111.5334460  53.6406730   5.2899450 111.8751270  54.4848780   4.9953320
 110.5950270  53.7890470   5.4064790 112.3141080  63.5372750   7.2751680
 112.9315080  64.2123830   6.9936130 111.4534200  63.9460730   7.1839180
 123.2318670  65.0012160   5.1906320 122.5482190  65.6711270   5.1822990
 123.7712960  65.1992810   4.4251180 124.6842810  54.8291820   3.3188050
 123.7367720  54.8630800   3.4503480 125.0092800  55.6430770   3.7037410
 120.7677410  66.8456290   3.9051500 120.7804570  66.4418580   3.0373760
 120.2152630  67.6203580   3.8012930 120.1662850  61.7486130   5.2334110
 120.5831640  61.5346240   4.3987570 120.8902670  62.0058920   5.8042730
 124.1124950  60.1473350   5.3250350 123.2843580  60.2166440   4.8500480
 124.7075430  60.7327660   4.8566180 121.0766960  56.9342670   6.2705220
 120.6638140  57.7596380   6.5245210 120.3442910  56.3487710   6.0781580
 113.6781450  63.4070130   3.2963100 113.3809740  62.8015600   2.6170880
 114.6281270  63.4447440   3.1852460 111.9228370  56.4945780   4.9122930
 112.4742960  56.6041120   4.1376180 112.4371880  56.8683380   5.6278160
 121.7667060  66.9802000   6.9586200 121.2897620  67.7874190   6.7658810
 121.0828850  66.3280330   7.1112410 112.7699880  63.1451820   9.9470900
 111.8728410  63.3691790  10.1944300 112.7952750  63.2686760   8.9982300
 111.5971100  60.0165140   8.5228270 111.4578870  60.8887940   8.8915670
 110.7152460  59.6737950   8.3776210 113.3951450  65.9586840  10.7313420
 113.3666880  66.3629790   9.8641850 113.2316420  65.0297200  10.5685020
 125.3466270  66.7413940  12.0277590 125.8225990  67.2196830  12.7066670
 125.9673430  66.6731430  11.3023090 107.5489750  61.7862690   4.4399180
 107.6270170  61.9211460   3.4954900 108.1631430  61.0778580   4.6327300
 124.7499520  63.9326790   9.1877600 124.8762580  63.6938670   8.2694780
 124.7920900  63.1011330   9.6599680 118.6116260  67.6354790   7.7572410
 119.1260930  67.5462800   8.5594840 117.7685340  67.9814490   8.0500320
 124.6023530  55.9859250  10.1527340 123.9867800  56.4938920   9.6242800
 124.2819950  55.0857580  10.0953280 107.6049270  62.8276860   6.9793640
 107.7680310  62.3582220   6.1613010 108.0701720  62.3200420   7.6442480
 112.3768040  51.9582620   2.0154210 111.9336190  52.7392160   1.6838730
 112.9353030  52.2812510   2.7225150 116.6637850  54.8251140   7.6189530
 116.2017220  55.0334160   8.4309470 116.2615960  54.0110490   7.3160200
 121.6642360  56.0460090   8.7486190 120.8135950  55.7465840   9.0695260
 121.5044150  56.2902100   7.8370010 118.7592070  57.5461840  10.8484980
 119.0845480  56.7125590  10.5087210 119.5472400  58.0690360  10.9963310
 114.4143940  52.5029950   3.8743810 114.7116270  53.4092780   3.7935830
 114.9629500  52.0148730   3.2603380 114.6081470  57.9801770  10.4095730
 114.5125070  57.0396500  10.2596130 115.4513450  58.2016840  10.0143800
 109.7392010  54.3915440   8.5629510 109.3455400  55.2390650   8.7702290
 109.0510410  53.7541810   8.7538150 116.3137060  54.4750410  11.6326250
 115.6235380  54.2822610  12.2672340 117.0569360  54.7585050  12.1650550
 107.0409060  52.3143900   2.5959590 106.7522110  52.8846760   3.3084570
 107.7854820  51.8348350   2.9590820 118.5900030  58.3148850   4.4680170
 117.8581150  58.8235660   4.8170270 118.1924370  57.4978830   4.1668950
 115.0277420  54.9903050   2.8732660 115.0313480  54.5493000   2.0237200
 115.9228540  55.3120380   2.9804480 110.8779800  54.8729540   1.8326870
 110.5379850  55.3504770   2.5893920 110.1157120  54.4194660   1.4727970
 119.0525940  53.7682530   3.8803110 119.0698680  54.2191180   4.7244960
 118.8041520  52.8688170   4.0936550 122.4796690  51.1814710   9.7189490
 122.8042460  50.4504370  10.2447470 122.5153200  50.8628350   8.8170480
 109.1788250  62.2028290   9.1389450 108.7943040  61.5621960   9.7372410
 109.4900440  62.9064410   9.7084180 115.3285390  59.0504830   4.6198070
 115.6955520  58.5763400   5.3659410 115.1390450  59.9246400   4.9606410
 113.1184760  58.0913470   6.9382280 112.8141830  58.9705450   7.1632640
 114.0731220  58.1513260   6.9739720 122.4054530  61.2939820   3.3275520
 123.1253650  61.7895110   2.9371630 122.2036350  60.6157710   2.6829390
 117.7873330  61.3648880   9.2144520 117.7210640  60.4444550   8.9602110
 117.1578470  61.4624320   9.9289160 109.1748490  58.9316210   8.0853640
 108.8163430  59.5970060   8.6726980 108.8803050  58.0999760   8.4566260
 112.3761610  59.3900450  10.9693190 112.0761750  59.5357630  10.0721010
 113.1472850  58.8305740  10.8766580 117.7190060  64.1869450   8.9648320
 117.7334600  63.2550410   8.7467230 117.0115160  64.2729210   9.6038090
 123.9301270  60.8276790   8.3116900 123.2049460  61.4205570   8.1146290
 124.4576730  60.8200330   7.5130270 117.1523960  65.8287020   6.0588820
 117.7966180  66.0346400   6.7362240 117.5153400  65.0675420   5.6059670
 118.4256040  63.8319370   4.7766270 119.0678270  63.1312530   4.8898440
 118.9505390  64.6117810   4.5963160 120.1993660  64.6314270   7.9802330
 120.5349900  65.2180960   8.6580250 119.2794000  64.5006980   8.2100120
 107.7497060  52.4209450   8.7625740 107.0355580  52.6206370   9.3678350
 108.1692100  51.6449020   9.1340540 108.0369650  66.4089710   9.7492270
 108.1460770  65.4684450   9.6087660 107.3850210  66.6744460   9.1006000
 116.0282240  64.6805600  11.1490390 115.7079110  63.9614840  11.6936080
 115.3540600  65.3560670  11.2226450 119.2435840  54.9131760   6.5127190
 119.6116660  54.0926970   6.8406760 118.3834040  54.9733650   6.9282840
 116.2037830  57.5671350   6.7365160 116.7023080  58.0417170   7.4017010
 116.3460780  56.6434870   6.9435190 123.4104690  53.7839310   7.5793550
 122.9078290  54.5244710   7.9187360 124.2261350  54.1723310   7.2630340
 123.7052280  66.1981340   2.7009170 123.8299700  67.0212510   3.1732980
 124.5717840  65.9872070   2.3533320 111.1769810  68.2912550   2.3726300
 111.9132290  67.7428010   2.6434870 111.5610730  69.1568560   2.2332290
 110.1828090  67.4758620  11.5611880 110.9840820  67.7970670  11.9747280
 109.6679910  67.1154200  12.2831790 119.0192720  63.5838490  11.5087290
 118.4130880  63.6070090  10.7683040 118.7146830  62.8521530  12.0454540
 120.4493090  67.3118780  10.1196700 121.4014840  67.2276800  10.0696940
 120.3021310  67.9760490  10.7930490 107.9025900  59.9632080  10.5047930
 108.4064920  59.3839360  11.0764160 107.1633320  60.2472310  11.0424300
 114.9563840  61.3703070  10.0383450 114.1909510  61.9388070   9.9538120
 115.1379800  61.0779280   9.1451680 122.0987190  63.1008400  10.5958470
 122.8396660  63.4384160  10.0925930 121.3359870  63.2700460  10.0428240
 109.9348980  58.1061670  11.3998000 109.9754320  57.8075540  12.3083230
 110.7894480  58.5069280  11.2405520 111.8754790  56.6853770   9.3672490
 111.3451250  56.1944720   8.7395830 112.5442860  57.1137970   8.8330420
 120.7732850  61.1523230   9.1313680 121.1873870  61.3068310   9.9804100
 119.8383850  61.2778450   9.2939460 121.2455020  58.4919390  11.1352830
 121.8275790  57.7371710  11.0473310 121.4216790  59.0226830  10.3584310
 112.3627090  53.6516140   9.4469780 112.2683960  53.0336890   8.7220650
 111.7824480  54.3782430   9.2199690 115.1288530  52.2089380   6.4797170
 114.6805830  52.2313640   5.6342720 114.4953730  51.8108400   7.0767470
 115.5348080  61.1043710   7.1009610 115.9536190  61.9476440   6.9285850
 114.6156710  61.2415750   6.8716390 117.8711980  58.8359890   8.4847450
 117.9908190  58.2401030   9.2242290 118.7305980  58.8729580   8.0648750
 120.2099880  59.3897080   7.0609960 119.6835100  59.9139700   6.4575100
 120.5531220  60.0224470   7.6919690 113.3855500  67.4096720   8.2167340
 112.8476590  68.1342780   7.8976040 113.6389460  66.9327060   7.4264680
 114.6380750  55.3781240   9.7423270 115.2280440  55.0697090  10.4301090
 113.8200990  54.9060990   9.8983170 119.4574180  54.9947050   9.9756290
 118.7689700  54.3328590   9.9106280 120.1780200  54.5485320  10.4204750
 116.2417710  68.6447930   8.4753990 116.1676410  69.5483070   8.7826360
 115.3396550  68.3259830   8.4476060 107.6445000  65.9722520   1.7787610
 107.9748010  65.1043580   1.5466250 108.0736000  66.1781040   2.6092570
 108.1335210  66.8393110   4.5169240 107.6966200  67.0193910   5.3493390
 108.7012890  67.5967730   4.3750960 123.7697390  66.3410110   8.8046550
 123.1699380  66.4002670   8.0610470 123.8991290  65.4015090   8.9343400
 122.4549030  63.0662090   6.9022710 121.6408870  63.4959250   7.1648500
 122.8623230  63.6780500   6.2891760 109.0035570  59.7365910   5.4161460
 109.3708610  59.6493310   6.2957480 108.4346390  58.9732460   5.3168320
 123.8039430  58.2050290   8.4291930 123.5725520  57.9763040   7.5289880
 124.0643980  59.1249840   8.3836820 108.5551570  56.6475000   9.3219880
 107.6607620  56.6141760   9.6613590 109.0949120  56.8461790  10.0871130
 122.2427500  53.4306720  11.2071630 123.1197680  53.4390120  11.5905630
 122.2548340  52.6937560  10.5963980 123.6890770  57.2836260   2.0959650
 124.2128250  56.7898910   1.4649820 124.2750190  57.4186620   2.8407220
 123.8680490  57.3676130   5.6179200 122.9183200  57.3339670   5.7324190
 124.0493500  58.2776240   5.3828970 109.0591280  50.9223330   3.6703100
 109.7067470  50.3720710   3.2298260 109.4793120  51.1766480   4.4918910
 122.9543620  51.1164690   7.0272740 123.5915840  51.7298830   7.3931930
 123.1018510  51.1525350   6.0821970 108.8123280  51.0779000   6.4128420
 108.4638100  51.5342820   7.1786600 108.4810980  50.1836130   6.4950850
 110.4187650  64.2498600  10.5781610 110.3757280  63.8791510  11.4596070
 110.5498660  65.1876170  10.7183430 114.1193680  65.8058190   6.1791330
 113.8785040  66.0732750   5.2921850 115.0596320  65.9763920   6.2342190
 116.3248100  52.2690880   9.9347840 116.2636990  52.8612710  10.6843250
 117.2648480  52.1616840   9.7898100 118.9622660  51.9260940   9.5740130
 119.5763070  52.2440230   8.9121210 119.5072220  51.4409530  10.1935990
 125.3797840  67.8252570   6.9801970 124.8856120  68.2221440   6.2629100
 124.7711130  67.2001780   7.3739250 109.4843920  50.6055200   9.6879190
 110.0326910  50.4243250   8.9245300 109.5499230  49.8149310  10.2235500
 110.2575680  67.1960850   7.6979390 109.6636000  67.0645550   8.4369430
 110.2499520  66.3598990   7.2321490 119.7030700  50.4893080   5.9009420
 118.8290540  50.8228190   5.6982350 119.5941450  50.0166260   6.7261290
 120.6102680  52.6963950   7.2851140 120.2816040  51.8815710   6.9052870
 121.5584980  52.6533760   7.1616830 123.0637290  68.4675990   4.2588710
 122.6040260  69.2191800   3.8846730 122.4349750  67.7482460   4.2003510
 109.8887910  64.5619230   6.6487430 109.1621970  63.9424520   6.5813380
 109.9497060  64.9559840   5.7785510 113.4933010  66.7764230   3.4336840
 114.0098030  66.1651590   2.9085100 114.1430390  67.2793010   3.9247850
 116.2328510  67.6672720   4.2605820 116.5206320  67.4127020   3.3838830
 116.7451730  67.1150080   4.8511390 117.4505520  51.4062920   4.8402330
 116.6677310  51.8808420   5.1199090 117.1568450  50.5017750   4.7315510
 122.0026590  52.1086020   2.8851420 122.4434680  52.0531120   2.0373020
 121.7334180  53.0244030   2.9561600 116.3000870  68.5888820  11.6274020
 117.2268180  68.3533090  11.6709980 116.2851300  69.4160820  11.1460050
 113.4864480  51.2533570  11.3915900 113.2048750  51.7567170  10.6276720
 113.8684180  50.4555320  11.0258030 120.0879940  50.6687150  11.9696370
 119.9745390  50.9881760  12.8647890 120.9049680  51.0699660  11.6733650
 122.8678430  67.8158680  11.4515060 123.6603750  67.3207910  11.2441020
 123.1611580  68.4948820  12.0590670 118.9938090  39.9136130  57.4305070
 118.9132140  38.9990740  57.1596780 118.5802510  40.4103200  56.7244780
 117.1256130  41.6915150  59.3114340 116.3498230  41.2115590  59.6012910
 117.7769060  41.0120800  59.1370500 121.1463560  46.0975340  58.0913470
 120.6845090  45.3262580  58.4200640 121.9589110  46.1241410  58.5965920
 109.5513910  36.9636850  53.9732490 108.6630610  37.3052820  53.8712370
 109.8355100  36.7637170  53.0813320 107.5146920  39.5642500  59.8572190
 108.0863030  38.7964700  59.8575830 107.5148460  39.8631260  58.9478800
 117.3726870  48.3833350  57.7117460 116.7538310  48.8390850  57.1411900
 118.2278650  48.5384810  57.3107160 116.5665120  44.3672340  59.3184500
 116.4973400  43.4262280  59.1573630 117.3284980  44.4573750  59.8907070
 117.5970290  37.1742720  59.5453430 117.9735110  36.3014600  59.4327100
 117.4989800  37.5101420  58.6543870 111.7275300  35.5468350  55.0070870
 111.8342050  36.4472080  55.3139630 110.8167660  35.4986320  54.7165520
 121.3794410  34.6693160  56.4781770 122.2004030  34.1789730  56.5207250
 121.4128490  35.2590820  57.2313610 113.5683030  38.5154720  59.3396050
 114.0761250  39.0135690  59.9801070 114.0996270  37.7389920  59.1635410
 118.2390220  43.2672590  55.1049370 117.6207490  43.7322040  54.5412090
 118.7513470  43.9600070  55.5218880 121.6155890  36.6093540  59.2509310
 120.9111460  36.8978430  59.8312420 121.9768050  37.4193650  58.8908870
 107.6073420  43.9529120  52.4789000 107.2301400  44.4416220  51.7473900
 107.8646490  44.6254400  53.1095530 124.6842810  36.0548330  59.6418520
 123.7367720  36.0887310  59.7733950 125.0092800  36.8687280  60.0267880
 115.2162350  32.3545510  57.9374510 115.5237330  31.7992400  57.2210010
 114.2863050  32.4889970  57.7547500 120.7677410  48.0712800  60.2281970
 120.7804570  47.6675090  59.3604230 120.2152630  48.8460090  60.1243400
 122.0622830  44.7929020  55.3172140 121.9519160  43.8503350  55.4421560
 122.0591080  45.1544660  56.2034900 117.6043110  40.4194340  54.6734630
 116.6772390  40.3531720  54.9023100 117.7567930  41.3574470  54.5589870
 117.5912190  36.6911340  51.6701790 116.6515860  36.8525300  51.7554250
 117.9095450  37.4097020  51.1237780 121.6340400  41.9814640  55.1769880
 121.0152820  41.6434190  54.5296180 121.6164850  41.3374400  55.8849070
 113.2099750  40.9459080  57.4554360 112.8056750  40.2336330  56.9600260
 113.2962870  40.6012320  58.3442400 113.6781450  44.6326640  59.6193570
 113.3809740  44.0272110  58.9401350 114.6281270  44.6703950  59.5082930
 119.8105100  41.2201450  52.1842630 120.2498380  40.3823880  52.0380450
 120.5233520  41.8530850  52.2706770 117.9200480  46.1597520  56.1523870
 118.3596390  46.9021850  55.7379260 117.8587370  46.4024090  57.0762830
 123.3922240  32.4744260  50.4983670 123.0794900  32.5671090  51.3982740
 124.1534710  33.0525290  50.4481100 109.9104380  39.8404060  54.9561010
 109.7901980  40.5666150  54.3442280 109.6005270  39.0706970  54.4788920
 108.7937380  44.7119390  57.1735830 108.3865460  44.8533980  56.3189430
 109.6850390  44.4279550  56.9707040 120.5870660  49.1466640  53.5086880
 120.4271800  48.8569580  54.4068710 120.4217370  48.3706770  52.9732110
 113.0659040  48.9265170  55.2858500 112.8901520  48.0100710  55.0726300
 112.2114780  49.2852460  55.5256300 120.2896790  46.6554200  52.0684880
 119.5961950  46.6531490  51.4087160 121.0319650  46.2313520  51.6379050
 119.8546720  48.2816910  56.1433370 120.3103670  47.5006290  56.4571990
 120.1939240  48.9923730  56.6874550 112.3768040  33.1839130  58.3384680
 111.9336190  33.9648670  58.0069200 112.9353030  33.5069020  59.0455620
 115.4926860  32.8049830  53.2190510 114.8681040  32.8009700  53.9443820
 115.4056980  31.9380790  52.8226480 114.4143940  33.7286460  60.1974280
 114.7116270  34.6349290  60.1166300 114.9629500  33.2405240  59.5833850
 112.1682260  38.3072700  56.0665930 111.9423180  38.0909870  56.9712550
 111.3874790  38.7401160  55.7211900 119.3980020  38.3136070  54.6656580
 118.7988910  39.0371870  54.4820200 119.9459630  38.2512850  53.8833030
 118.0044890  36.9499610  56.6959860 118.3974460  37.2671810  55.8828550
 118.3661740  36.0711490  56.8104380 107.0409060  33.5400410  58.9190060
 106.7522110  34.1103270  59.6315040 107.7854820  33.0604860  59.2821290
 107.2279290  37.4820530  50.1292780 107.1453960  38.4251290  50.2707770
 106.8762350  37.3395440  49.2505130 115.0277420  36.2159560  59.1963130
 115.0313480  35.7749510  58.3467670 115.9228540  36.5376890  59.3034950
 110.8779800  36.0986050  58.1557340 110.5379850  36.5761280  58.9124390
 110.1157120  35.6451170  57.7958440 115.0897570  37.2171640  52.1869890
 115.2110390  37.1758120  53.1355710 114.7046080  38.0795790  52.0316620
 114.1019070  39.5272780  51.5853190 113.5335970  39.0791030  50.9589100
 114.8108070  39.8865560  51.0518340 108.1925880  35.0205030  57.0722010
 107.9072800  34.6560700  57.9100630 108.1304740  34.2885490  56.4585150
 111.6466550  43.5230970  53.8579600 110.8728810  42.9828590  53.6978320
 112.3761180  43.0037580  53.5197360 122.4054530  42.5196330  59.6505990
 123.1253650  43.0151620  59.2602100 122.2036350  41.8414220  59.0059860
 117.8664470  33.9134290  53.7935380 117.0529080  33.4147460  53.7180690
 117.6726420  34.7532540  53.3771730 120.5812860  38.2853940  52.0897540
 121.4692480  38.5971170  51.9148880 120.5517950  37.4126190  51.6978120
 111.6903950  43.1911350  57.4958410 112.2082620  42.3879610  57.4415300
 111.2387970  43.1290490  58.3375240 116.5773450  44.4577630  52.7685710
 116.9189150  45.2019860  52.2729030 115.7486160  44.7708750  53.1310540
 122.8527130  39.5965780  51.5577400 122.7690850  40.0280000  50.7073840
 123.5721320  40.0564130  51.9904220 123.8814380  46.4508040  54.2859530
 123.2390540  45.7963660  54.5603250 123.4945040  46.8563130  53.5100200
 119.4600860  43.7793470  58.1331220 119.8124680  43.1821600  57.4732590
 118.5763190  43.4537700  58.3039470 115.5464140  44.5391160  55.5401630
 116.2335270  45.0860370  55.9209220 114.7596560  45.0831890  55.5751240
 107.6856540  40.1563980  51.0318710 108.5551390  40.4388780  51.3154630
 107.1946860  40.9699850  50.9167520 114.8491350  41.5437190  55.1526990
 115.3054130  42.3542440  55.3787180 114.4979560  41.2260330  55.9845480
 110.7503130  31.8874840  55.6249510 110.6217760  31.8792740  56.5734430
 109.9265150  32.2257930  55.2740520 122.2711760  45.3424500  50.8235880
 122.0449340  44.6254940  51.4160520 121.8807960  45.0936940  49.9857630
 108.0527790  49.3691360  51.5980340 108.4125430  49.9680700  50.9437610
 107.9120130  49.9151250  52.3715370 121.8528010  43.2596440  52.4850040
 121.5649710  43.7209130  53.2727920 122.6480180  42.7994210  52.7534260
 114.0696410  46.7522560  52.4154010 114.0606510  47.4852250  51.7998520
 113.1494770  46.5054140  52.5080970 109.6703050  41.9737450  53.1600770
 109.0631000  42.7136350  53.1696070 110.1452400  42.0636810  52.3338970
 122.6097870  35.0945210  53.6445220 121.9811030  35.1990880  52.9303450
 122.1149790  35.3141990  54.4339100 117.0556010  46.8150800  51.0779200
 117.1567990  46.6114790  50.1481180 116.1557750  46.5609080  51.2826980
 114.5781900  37.3731160  55.0603100 113.8698050  37.8417500  55.5016710
 114.8626380  36.7153170  55.6948290 118.6097330  34.0981820  56.4998890
 118.4865110  34.1167950  55.5508400 119.5581890  34.1460760  56.6197290
 115.6974120  49.3337120  55.7726870 115.9515620  49.2958510  54.8506240
 114.7486600  49.2070450  55.7655120 112.7816920  35.6816240  52.4353810
 113.6307450  36.1186390  52.3694000 112.4148190  35.9936500  53.2625870
 121.7026700  40.2529000  57.3485380 120.7616840  40.2679230  57.5233070
 122.0170770  39.4664960  57.7945680 111.6808340  41.9348600  50.9089340
 112.4471610  41.8229960  51.4714770 111.7583030  41.2386570  50.2566110
 110.3755100  39.3673670  51.5922230 110.4558690  38.4201180  51.7039630
 111.2674850  39.6980550  51.6982890 123.7052280  47.4237850  59.0239640
 123.8299700  48.2469020  59.4963450 124.5717840  47.2128580  58.6763790
 111.1769810  49.5169060  58.6956770 111.9132290  48.9684520  58.9665340
 111.5610730  50.3825070  58.5562760 108.0615290  45.5842630  54.5698280
 107.1355070  45.8263770  54.5603690 108.5271720  46.4116890  54.4483030
 114.2872120  48.6899370  50.5182340 115.0800730  48.9788200  50.0664130
 113.7676470  48.2591540  49.8394820 123.3402290  47.9169500  51.9419080
 123.0543800  47.5034640  51.1273260 123.1421840  48.8457210  51.8219600
 114.8049520  43.9102780  50.3824690 114.7000160  43.2955130  51.1086070
 114.6373740  43.3868670  49.5987700 118.0452250  42.9722810  50.9866680
 117.4962350  43.4192110  51.6309420 118.6671510  42.4672060  51.5104350
 113.7127370  41.9313730  52.8831980 114.1343790  41.7653600  53.7263370
 113.8378210  41.1213960  52.3887120 116.2255010  40.9551340  50.1309080
 116.7460670  40.2400360  49.7650230 116.8723410  41.5937210  50.4309590
 112.6086270  38.0046960  49.8290140 112.4075330  37.1414320  50.1903480
 112.4378320  37.9180320  48.8911740 120.0874580  32.8155190  52.3577020
 120.3676870  31.9723090  52.7136440 119.3140310  33.0478300  52.8715770
 111.4069070  35.1047580  49.8168020 111.7094970  35.1115010  48.9087170
 112.1463660  34.7545440  50.3135680 114.6254000  34.0482200  50.8024220
 114.2776000  33.3706190  50.2226670 114.8266770  33.5871710  51.6167610
 116.7903040  49.0362950  52.4210820 117.6853830  49.3747920  52.4429580
 116.8220670  48.3142360  51.7935100 110.4299200  44.4090000  50.6497820
 110.8674070  44.9519670  51.3055400 110.9146930  43.5836950  50.6594160
 107.6445000  47.1979030  58.1018080 107.9748010  46.3300090  57.8696720
 108.0736000  47.4037550  58.9323040 112.2406920  45.5288040  55.7620050
 111.9402460  45.4053010  56.6623960 112.1344410  44.6696630  55.3535780
 125.0098840  45.3084440  50.4646730 124.1791800  45.3761090  50.9353960
 125.1870670  46.1988560  50.1613590 124.4655300  42.0531920  52.9680930
 125.2274210  42.6228570  53.0740620 124.4809670  41.4859120  53.7389240
 107.9659640  40.5769850  57.1988590 107.3108480  40.3081490  56.5548290
 108.8037590  40.4674330  56.7490570 125.4715270  42.9082020  57.8122860
 125.8424100  42.1249340  57.4058830 126.1117200  43.5971120  57.6340160
 124.5174470  42.3466290  50.1253450 124.7923310  43.2545170  49.9972670
 124.3285210  42.2828820  51.0615440 120.9150080  35.3711140  51.4207080
 121.3334960  35.1842120  50.5803740 120.6086140  34.5190190  51.7310010
 124.4139810  40.2835280  55.1182880 124.0383410  39.5163210  54.6864170
 123.6842930  40.6657980  55.6057810 107.1797720  37.7868780  53.1413920
 106.2761800  38.0498980  52.9665580 107.6638340  38.0579950  52.3613880
 123.6890770  38.5092770  58.4190120 124.2128250  38.0155420  57.7880290
 124.2750190  38.6443130  59.1637690 109.7224930  36.8434320  51.0508300
 110.4316630  36.4217540  50.5655580 109.0064870  36.9109550  50.4191650
 109.3699090  32.8973650  50.0910950 110.0927220  33.4382590  50.4092170
 109.6423610  32.6237070  49.2152490 123.1790740  37.7666120  54.3582530
 123.6749860  37.5336990  55.1431410 122.9806810  36.9277960  53.9420170
 124.6077900  36.4027070  56.8920210 124.4977180  36.2483110  57.8302480
 125.3685490  35.8748010  56.6495620 125.4968170  34.2334990  50.1326350
 126.4217480  34.1016170  49.9244640 125.4743960  34.3127810  51.0862800
 125.5706660  35.0045650  52.7583060 124.7758160  34.9390770  53.2875970
 125.7749940  35.9396290  52.7468410 122.5125080  49.0437200  56.7521450
 123.1084150  48.7221770  56.0755870 122.7703230  48.5709020  57.5434720
 113.4933010  48.0020740  59.7567310 114.0098030  47.3908100  59.2315570
 114.1430390  48.5049520  60.2478320 122.0026590  33.3342530  59.2081890
 122.4434680  33.2787630  58.3603490 121.7334180  34.2500540  59.2792070
 123.8665160  32.9657770  57.2190710 123.8053560  32.0218990  57.0721730
 124.6457190  33.0737860  57.7644170 108.1717910  49.1050130  56.1814660
 108.0039950  48.4720810  56.8796550 107.3052420  49.3109530  55.8308850
 108.7945930  32.9366910  53.6846520 109.5525290  33.0495790  53.1110550
 108.3323100  33.7736110  53.6389950 115.3359740  35.0506180  56.6748830
 114.5234250  34.6763070  56.3344710 115.8401380  34.2951260  56.9770020
 119.8384720  31.7148630  57.9131900 120.4414090  32.2868840  58.3880420
 119.0977710  32.2788070  57.6905800 122.9819320  32.1170190  53.1872180
 123.1769950  33.0153640  53.4539610 122.1949190  31.8857270  53.6805130
 109.7780610  47.7983360  53.6264800 109.2528230  48.1791390  52.9226760
 109.7025190  48.4234130  54.3474510 111.1671080  33.4630960  52.2248490
 111.6963840  32.6760760  52.0956440 111.7999400  34.1422150  52.4584020
 113.3608920  33.2006100  55.2793880 112.7311660  32.4993410  55.4464010
 112.8214060  33.9610230  55.0627040 124.5345930  49.3570900  54.9478740
 124.7098120  48.6708640  54.3039660 123.8367500  49.8817950  54.5555410
 112.3773580  49.7465740  52.5014050 113.1092400  49.4625020  51.9537940
 112.6367250  49.5079020  53.3913430 111.5388370  45.8630470  52.5060380
 110.9097250  46.3315570  53.0546210 111.6536200  45.0179690  52.9406570
 118.9938090  39.9136130  38.6561580 118.9132140  38.9990740  38.3853290
 118.5802510  40.4103200  37.9501290 117.1256130  41.6915150  40.5370850
 116.3498230  41.2115590  40.8269420 117.7769060  41.0120800  40.3627010
 121.1463560  46.0975340  39.3169980 120.6845090  45.3262580  39.6457150
 121.9589110  46.1241410  39.8222430 117.3726870  48.3833350  38.9373970
 116.7538310  48.8390850  38.3668410 118.2278650  48.5384810  38.5363670
 108.7571790  34.9726860  42.8697630 108.5774630  34.0752610  43.1500390
 108.3551870  35.5198730  43.5444580 117.5970290  37.1742720  40.7709940
 117.9735110  36.3014600  40.6583610 117.4989800  37.5101420  39.8800380
 121.3794410  34.6693160  37.7038280 122.2004030  34.1789730  37.7463760
 121.4128490  35.2590820  38.4570120 125.6693960  36.6859910  44.2681910
 124.9646130  37.0741620  43.7497020 125.9351880  37.3810200  44.8702840
 111.8519130  33.1553280  44.8315980 111.8537570  33.6725670  44.0261880
 111.0223440  32.6783460  44.8085910 118.2390220  43.2672590  36.3305880
 117.6207490  43.7322040  35.7668600 118.7513470  43.9600070  36.7475390
 113.1021980  42.7948460  43.0089480 112.7691360  43.4217380  43.6510550
 113.2788660  43.3210340  42.2291150 121.6155890  36.6093540  40.4765820
 120.9111460  36.8978430  41.0568930 121.9768050  37.4193650  40.1165380
 111.5334460  34.8663240  42.8386430 111.8751270  35.7105290  42.5440300
 110.5950270  35.0146980  42.9551770 112.3141080  44.7629260  44.8238660
 112.9315080  45.4380340  44.5423110 111.4534200  45.1717240  44.7326160
 123.2318670  46.2268670  42.7393300 122.5482190  46.8967780  42.7309970
 123.7712960  46.4249320  41.9738160 124.6842810  36.0548330  40.8675030
 123.7367720  36.0887310  40.9990460 125.0092800  36.8687280  41.2524390
 115.2162350  32.3545510  39.1631020 115.5237330  31.7992400  38.4466520
 114.2863050  32.4889970  38.9804010 120.7677410  48.0712800  41.4538480
 120.7804570  47.6675090  40.5860740 120.2152630  48.8460090  41.3499910
 120.1662850  42.9742640  42.7821090 120.5831640  42.7602750  41.9474550
 120.8902670  43.2315430  43.3529710 124.1124950  41.3729860  42.8737330
 123.2843580  41.4422950  42.3987460 124.7075430  41.9584170  42.4053160
 121.0766960  38.1599180  43.8192200 120.6638140  38.9852890  44.0732190
 120.3442910  37.5744220  43.6268560 111.9228370  37.7202290  42.4609910
 112.4742960  37.8297630  41.6863160 112.4371880  38.0939890  43.1765140
 121.7667060  48.2058510  44.5073180 121.2897620  49.0130700  44.3145790
 121.0828850  47.5536840  44.6599390 112.7699880  44.3708330  47.4957880
 111.8728410  44.5948300  47.7431280 112.7952750  44.4943270  46.5469280
 111.5971100  41.2421650  46.0715250 111.4578870  42.1144450  46.4402650
 110.7152460  40.8994460  45.9263190 117.9200480  46.1597520  37.3780380
 118.3596390  46.9021850  36.9635770 117.8587370  46.4024090  38.3019340
 113.3951450  47.1843350  48.2800400 113.3666880  47.5886300  47.4128830
 113.2316420  46.2553710  48.1172000 125.3466270  47.9670450  49.5764570
 125.8225990  48.4453340  50.2553650 125.9673430  47.8987940  48.8510070
 124.7499520  45.1583300  46.7364580 124.8762580  44.9195180  45.8181760
 124.7920900  44.3267840  47.2086660 118.6116260  48.8611300  45.3059390
 119.1260930  48.7719310  46.1081820 117.7685340  49.2071000  45.5987300
 119.8546720  48.2816910  37.3689880 120.3103670  47.5006290  37.6828500
 120.1939240  48.9923730  37.9131060 124.6023530  37.2115760  47.7014320
 123.9867800  37.7195430  47.1729780 124.2819950  36.3114090  47.6440260
 107.6049270  44.0533370  44.5280620 107.7680310  43.5838730  43.7099990
 108.0701720  43.5456930  45.1929460 116.6637850  36.0507650  45.1676510
 116.2017220  36.2590670  45.9796450 116.2615960  35.2367000  44.8647180
 118.7592070  38.7718350  48.3971960 119.0845480  37.9382100  48.0574190
 119.5472400  39.2946870  48.5450290 114.4143940  33.7286460  41.4230790
 114.7116270  34.6349290  41.3422810 114.9629500  33.2405240  40.8090360
 119.3980020  38.3136070  35.8913090 118.7988910  39.0371870  35.7076710
 119.9459630  38.2512850  35.1089540 114.6081470  39.2058280  47.9582710
 114.5125070  38.2653010  47.8083110 115.4513450  39.4273350  47.5630780
 118.0044890  36.9499610  37.9216370 118.3974460  37.2671810  37.1085060
 118.3661740  36.0711490  38.0360890 109.7392010  35.6171950  46.1116490
 109.3455400  36.4647160  46.3189270 109.0510410  34.9798320  46.3025130
 116.3137060  35.7006920  49.1813230 115.6235380  35.5079120  49.8159320
 117.0569360  35.9841560  49.7137530 118.5900030  39.5405360  42.0167150
 117.8581150  40.0492170  42.3657250 118.1924370  38.7235340  41.7155930
 115.0277420  36.2159560  40.4219640 115.0313480  35.7749510  39.5724180
 115.9228540  36.5376890  40.5291460 119.0525940  34.9939040  41.4290090
 119.0698680  35.4447690  42.2731940 118.8041520  34.0944680  41.6423530
 122.4796690  32.4071220  47.2676470 122.8042460  31.6760880  47.7934450
 122.5153200  32.0884860  46.3657460 109.1788250  43.4284800  46.6876430
 108.7943040  42.7878470  47.2859390 109.4900440  44.1320920  47.2571160
 115.3285390  40.2761340  42.1685050 115.6955520  39.8019910  42.9146390
 115.1390450  41.1502910  42.5093390 113.1184760  39.3169980  44.4869260
 112.8141830  40.1961960  44.7119620 114.0731220  39.3769770  44.5226700
 122.4054530  42.5196330  40.8762500 123.1253650  43.0151620  40.4858610
 122.2036350  41.8414220  40.2316370 117.7873330  42.5905390  46.7631500
 117.7210640  41.6701060  46.5089090 117.1578470  42.6880830  47.4776140
 109.1748490  40.1572720  45.6340620 108.8163430  40.8226570  46.2213960
 108.8803050  39.3256270  46.0053240 112.3761610  40.6156960  48.5180170
 112.0761750  40.7614140  47.6207990 113.1472850  40.0562250  48.4253560
 117.7190060  45.4125960  46.5135300 117.7334600  44.4806920  46.2954210
 117.0115160  45.4985720  47.1525070 123.9301270  42.0533300  45.8603880
 123.2049460  42.6462080  45.6633270 124.4576730  42.0456840  45.0617250
 119.4600860  43.7793470  39.3587730 119.8124680  43.1821600  38.6989100
 118.5763190  43.4537700  39.5295980 117.1523960  47.0543530  43.6075800
 117.7966180  47.2602910  44.2849220 117.5153400  46.2931930  43.1546650
 118.4256040  45.0575880  42.3253250 119.0678270  44.3569040  42.4385420
 118.9505390  45.8374320  42.1450140 120.1993660  45.8570780  45.5289310
 120.5349900  46.4437470  46.2067230 119.2794000  45.7263490  45.7587100
 107.7497060  33.6465960  46.3112720 107.0355580  33.8462880  46.9165330
 108.1692100  32.8705530  46.6827520 108.0369650  47.6346220  47.2979250
 108.1460770  46.6940960  47.1574640 107.3850210  47.9000970  46.6492980
 116.0282240  45.9062110  48.6977370 115.7079110  45.1871350  49.2423060
 115.3540600  46.5817180  48.7713430 119.2435840  36.1388270  44.0614170
 119.6116660  35.3183480  44.3893740 118.3834040  36.1990160  44.4769820
 116.2037830  38.7927860  44.2852140 116.7023080  39.2673680  44.9503990
 116.3460780  37.8691380  44.4922170 118.6097330  34.0981820  37.7255400
 118.4865110  34.1167950  36.7764910 119.5581890  34.1460760  37.8453800
 115.6974120  49.3337120  36.9983380 115.9515620  49.2958510  36.0762750
 114.7486600  49.2070450  36.9911630 123.4104690  35.0095820  45.1280530
 122.9078290  35.7501220  45.4674340 124.2261350  35.3979820  44.8117320
 121.7026700  40.2529000  38.5741890 120.7616840  40.2679230  38.7489580
 122.0170770  39.4664960  39.0202190 123.7052280  47.4237850  40.2496150
 123.8299700  48.2469020  40.7219960 124.5717840  47.2128580  39.9020300
 110.1828090  48.7015130  49.1098860 110.9840820  49.0227180  49.5234260
 109.6679910  48.3410710  49.8318770 119.0192720  44.8095000  49.0574270
 118.4130880  44.8326600  48.3170020 118.7146830  44.0778040  49.5941520
 120.4493090  48.5375290  47.6683680 121.4014840  48.4533310  47.6183920
 120.3021310  49.2017000  48.3417470 107.9025900  41.1888590  48.0534910
 108.4064920  40.6095870  48.6251140 107.1633320  41.4728820  48.5911280
 114.9563840  42.5959580  47.5870430 114.1909510  43.1644580  47.5025100
 115.1379800  42.3035790  46.6938660 118.0452250  42.9722810  32.2123190
 117.4962350  43.4192110  32.8565930 118.6671510  42.4672060  32.7360860
 122.0987190  44.3264910  48.1445450 122.8396660  44.6640670  47.6412910
 121.3359870  44.4956970  47.5915220 109.9348980  39.3318180  48.9484980
 109.9754320  39.0332050  49.8570210 110.7894480  39.7325790  48.7892500
 111.8754790  37.9110280  46.9159470 111.3451250  37.4201230  46.2882810
 112.5442860  38.3394480  46.3817400 120.7732850  42.3779740  46.6800660
 121.1873870  42.5324820  47.5291080 119.8383850  42.5034960  46.8426440
 121.2455020  39.7175900  48.6839810 121.8275790  38.9628220  48.5960290
 121.4216790  40.2483340  47.9071290 112.3627090  34.8772650  46.9956760
 112.2683960  34.2593400  46.2707630 111.7824480  35.6038940  46.7686670
 115.1288530  33.4345890  44.0284150 114.6805830  33.4570150  43.1829700
 114.4953730  33.0364910  44.6254450 115.5348080  42.3300220  44.6496590
 115.9536190  43.1732950  44.4772830 114.6156710  42.4672260  44.4203370
 117.8711980  40.0616400  46.0334430 117.9908190  39.4657540  46.7729270
 118.7305980  40.0986090  45.6135730 120.2099880  40.6153590  44.6096940
 119.6835100  41.1396210  44.0062080 120.5531220  41.2480980  45.2406670
 113.3855500  48.6353230  45.7654320 112.8476590  49.3599290  45.4463020
 113.6389460  48.1583570  44.9751660 114.6380750  36.6037750  47.2910250
 115.2280440  36.2953600  47.9788070 113.8200990  36.1317500  47.4470150
 119.4574180  36.2203560  47.5243270 118.7689700  35.5585100  47.4593260
 120.1780200  35.7741830  47.9691730 120.0874580  32.8155190  33.5833530
 120.3676870  31.9723090  33.9392950 119.3140310  33.0478300  34.0972280
 116.2417710  49.8704440  46.0240970 116.1676410  50.7739580  46.3313340
 115.3396550  49.5516340  45.9963040 116.7903040  49.0362950  33.6467330
 117.6853830  49.3747920  33.6686090 116.8220670  48.3142360  33.0191610
 123.7697390  47.5666620  46.3533530 123.1699380  47.6259180  45.6097450
 123.8991290  46.6271600  46.4830380 125.4715270  42.9082020  39.0379370
 125.8424100  42.1249340  38.6315340 126.1117200  43.5971120  38.8596670
 122.4549030  44.2918600  44.4509690 121.6408870  44.7215760  44.7135480
 122.8623230  44.9037010  43.8378740 109.0035570  40.9622420  42.9648440
 109.3708610  40.8749820  43.8444460 108.4346390  40.1988970  42.8655300
 123.8039430  39.4306800  45.9778910 123.5725520  39.2019550  45.0776860
 124.0643980  40.3506350  45.9323800 108.5551570  37.8731510  46.8706860
 107.6607620  37.8398270  47.2100570 109.0949120  38.0718300  47.6358110
 122.2427500  34.6563230  48.7558610 123.1197680  34.6646630  49.1392610
 122.2548340  33.9194070  48.1450960 123.6890770  38.5092770  39.6446630
 124.2128250  38.0155420  39.0136800 124.2750190  38.6443130  40.3894200
 123.8680490  38.5932640  43.1666180 122.9183200  38.5596180  43.2811170
 124.0493500  39.5032750  42.9315950 122.9543620  32.3421200  44.5759720
 123.5915840  32.9555340  44.9418910 123.1018510  32.3781860  43.6308950
 122.5125080  49.0437200  37.9777960 123.1084150  48.7221770  37.3012380
 122.7703230  48.5709020  38.7691230 108.8123280  32.3035510  43.9615400
 108.4638100  32.7599330  44.7273580 108.4810980  31.4092640  44.0437830
 110.4187650  45.4755110  48.1268590 110.3757280  45.1048020  49.0083050
 110.5498660  46.4132680  48.2670410 114.1193680  47.0314700  43.7278310
 113.8785040  47.2989260  42.8408830 115.0596320  47.2020430  43.7829170
 116.3248100  33.4947390  47.4834820 116.2636990  34.0869220  48.2330230
 117.2648480  33.3873350  47.3385080 118.9622660  33.1517450  47.1227110
 119.5763070  33.4696740  46.4608190 119.5072220  32.6666040  47.7422970
 125.3797840  49.0509080  44.5288950 124.8856120  49.4477950  43.8116080
 124.7711130  48.4258290  44.9226230 109.4843920  31.8311710  47.2366170
 110.0326910  31.6499760  46.4732280 109.5499230  31.0405820  47.7722480
 119.7030700  31.7149590  43.4496400 118.8290540  32.0484700  43.2469330
 119.5941450  31.2422770  44.2748270 120.6102680  33.9220460  44.8338120
 120.2816040  33.1072220  44.4539850 121.5584980  33.8790270  44.7103810
 123.0637290  49.6932500  41.8075690 122.6040260  50.4448310  41.4333710
 122.4349750  48.9738970  41.7490490 109.8887910  45.7875740  44.1974410
 109.1621970  45.1681030  44.1300360 109.9497060  46.1816350  43.3272490
 116.2328510  48.8929230  41.8092800 116.5206320  48.6383530  40.9325810
 116.7451730  48.3406590  42.3998370 117.4505520  32.6319430  42.3889310
 116.6677310  33.1064930  42.6686070 117.1568450  31.7274260  42.2802490
 122.0026590  33.3342530  40.4338400 122.4434680  33.2787630  39.5860000
 121.7334180  34.2500540  40.5048580 123.8665160  32.9657770  38.4447220
 123.8053560  32.0218990  38.2978240 124.6457190  33.0737860  38.9900680
 115.3359740  35.0506180  37.9005340 114.5234250  34.6763070  37.5601220
 115.8401380  34.2951260  38.2026530 119.8384720  31.7148630  39.1388410
 120.4414090  32.2868840  39.6136930 119.0977710  32.2788070  38.9162310
 122.9819320  32.1170190  34.4128690 123.1769950  33.0153640  34.6796120
 122.1949190  31.8857270  34.9061640 116.3000870  49.8145330  49.1761000
 117.2268180  49.5789600  49.2196960 116.2851300  50.6417330  48.6947030
 124.5345930  49.3570900  36.1735250 124.7098120  48.6708640  35.5296170
 123.8367500  49.8817950  35.7811920 113.4864480  32.4790080  48.9402880
 113.2048750  32.9823680  48.1763700 113.8684180  31.6811830  48.5745010
 120.0879940  31.8943660  49.5183350 119.9745390  32.2138270  50.4134870
 120.9049680  32.2956170  49.2220630 122.8678430  49.0415190  49.0002040
 123.6603750  48.5464420  48.7928000 123.1611580  49.7205330  49.6077650
 111.7275300  35.5468350  17.4583890 111.8342050  36.4472080  17.7652650
 110.8167660  35.4986320  17.1678540 125.6693960  36.6859910  25.4938420
 124.9646130  37.0741620  24.9753530 125.9351880  37.3810200  26.0959350
 112.3141080  44.7629260  26.0495170 112.9315080  45.4380340  25.7679620
 111.4534200  45.1717240  25.9582670 117.5912190  36.6911340  14.1214810
 116.6515860  36.8525300  14.2067270 117.9095450  37.4097020  13.5750800
 121.0766960  38.1599180  25.0448710 120.6638140  38.9852890  25.2988700
 120.3442910  37.5744220  24.8525070 112.7699880  44.3708330  28.7214390
 111.8728410  44.5948300  28.9687790 112.7952750  44.4943270  27.7725790
 123.3922240  32.4744260  12.9496690 123.0794900  32.5671090  13.8495760
 124.1534710  33.0525290  12.8994120 120.5870660  49.1466640  15.9599900
 120.4271800  48.8569580  16.8581730 120.4217370  48.3706770  15.4245130
 120.2896790  46.6554200  14.5197900 119.5961950  46.6531490  13.8600180
 121.0319650  46.2313520  14.0892070 107.6049270  44.0533370  25.7537130
 107.7680310  43.5838730  24.9356500 108.0701720  43.5456930  26.4185970
 121.6642360  37.2716600  27.5229680 120.8135950  36.9722350  27.8438750
 121.5044150  37.5158610  26.6113500 118.7592070  38.7718350  29.6228470
 119.0845480  37.9382100  29.2830700 119.5472400  39.2946870  29.7706800
 115.4926860  32.8049830  15.6703530 114.8681040  32.8009700  16.3956840
 115.4056980  31.9380790  15.2739500 107.2279290  37.4820530  12.5805800
 107.1453960  38.4251290  12.7220790 106.8762350  37.3395440  11.7018150
 115.0897570  37.2171640  14.6382910 115.2110390  37.1758120  15.5868730
 114.7046080  38.0795790  14.4829640 114.1019070  39.5272780  14.0366210
 113.5335970  39.0791030  13.4102120 114.8108070  39.8865560  13.5031360
 117.7873330  42.5905390  27.9888010 117.7210640  41.6701060  27.7345600
 117.1578470  42.6880830  28.7032650 110.7503130  31.8874840  18.0762530
 110.6217760  31.8792740  19.0247450 109.9265150  32.2257930  17.7253540
 122.2711760  45.3424500  13.2748900 122.0449340  44.6254940  13.8673540
 121.8807960  45.0936940  12.4370650 108.0527790  49.3691360  14.0493360
 108.4125430  49.9680700  13.3950630 107.9120130  49.9151250  14.8228390
 116.0282240  45.9062110  29.9233880 115.7079110  45.1871350  30.4679570
 115.3540600  46.5817180  29.9969940 117.0556010  46.8150800  13.5292220
 117.1567990  46.6114790  12.5994200 116.1557750  46.5609080  13.7340000
 112.7816920  35.6816240  14.8866830 113.6307450  36.1186390  14.8207020
 112.4148190  35.9936500  15.7138890 114.2872120  48.6899370  12.9695360
 115.0800730  48.9788200  12.5177150 113.7676470  48.2591540  12.2907840
 123.3402290  47.9169500  14.3932100 123.0543800  47.5034640  13.5786280
 123.1421840  48.8457210  14.2732620 114.8049520  43.9102780  12.8337710
 114.7000160  43.2955130  13.5599090 114.6373740  43.3868670  12.0500720
 114.9563840  42.5959580  28.8126940 114.1909510  43.1644580  28.7281610
 115.1379800  42.3035790  27.9195170 118.0452250  42.9722810  13.4379700
 117.4962350  43.4192110  14.0822440 118.6671510  42.4672060  13.9617370
 116.2255010  40.9551340  12.5822100 116.7460670  40.2400360  12.2163250
 116.8723410  41.5937210  12.8822610 120.7732850  42.3779740  27.9057170
 121.1873870  42.5324820  28.7547590 119.8383850  42.5034960  28.0682950
 117.8711980  40.0616400  27.2590940 117.9908190  39.4657540  27.9985780
 118.7305980  40.0986090  26.8392240 120.2099880  40.6153590  25.8353450
 119.6835100  41.1396210  25.2318590 120.5531220  41.2480980  26.4663180
 112.6086270  38.0046960  12.2803160 112.4075330  37.1414320  12.6416500
 112.4378320  37.9180320  11.3424760 111.4069070  35.1047580  12.2681040
 111.7094970  35.1115010  11.3600190 112.1463660  34.7545440  12.7648700
 114.6254000  34.0482200  13.2537240 114.2776000  33.3706190  12.6739690
 114.8266770  33.5871710  14.0680630 116.7903040  49.0362950  14.8723840
 117.6853830  49.3747920  14.8942600 116.8220670  48.3142360  14.2448120
 108.1335210  48.0649620  23.2912730 107.6966200  48.2450420  24.1236880
 108.7012890  48.8224240  23.1494450 125.0098840  45.3084440  12.9159750
 124.1791800  45.3761090  13.3866980 125.1870670  46.1988560  12.6126610
 123.8680490  38.5932640  24.3922690 122.9183200  38.5596180  24.5067680
 124.0493500  39.5032750  24.1572460 109.7224930  36.8434320  13.5021320
 110.4316630  36.4217540  13.0168600 109.0064870  36.9109550  12.8704670
 109.3699090  32.8973650  12.5423970 110.0927220  33.4382590  12.8605190
 109.6423610  32.6237070  11.6665510 109.0591280  32.1479840  22.4446590
 109.7067470  31.5977220  22.0041750 109.4793120  32.4022990  23.2662400
 122.9543620  32.3421200  25.8016230 123.5915840  32.9555340  26.1675420
 123.1018510  32.3781860  24.8565460 125.4968170  34.2334990  12.5839370
 126.4217480  34.1016170  12.3757660 125.4743960  34.3127810  13.5375820
 108.8123280  32.3035510  25.1871910 108.4638100  32.7599330  25.9530090
 108.4810980  31.4092640  25.2694340 109.4843920  31.8311710  28.4622680
 110.0326910  31.6499760  27.6988790 109.5499230  31.0405820  28.9978990
 109.8887910  45.7875740  25.4230920 109.1621970  45.1681030  25.3556870
 109.9497060  46.1816350  24.5529000 108.1717910  49.1050130  18.6327680
 108.0039950  48.4720810  19.3309570 107.3052420  49.3109530  18.2821870
 108.7945930  32.9366910  16.1359540 109.5525290  33.0495790  15.5623570
 108.3323100  33.7736110  16.0902970 111.1671080  33.4630960  14.6761510
 111.6963840  32.6760760  14.5469460 111.7999400  34.1422150  14.9097040
 113.3608920  33.2006100  17.7306900 112.7311660  32.4993410  17.8977030
 112.8214060  33.9610230  17.5140060 124.5345930  49.3570900  17.3991760
 124.7098120  48.6708640  16.7552680 123.8367500  49.8817950  17.0068430
 120.0879940  31.8943660  30.7439860 119.9745390  32.2138270  31.6391380
 120.9049680  32.2956170  30.4477140 117.1256130  41.6915150   2.9883870
 116.3498230  41.2115590   3.2782440 117.7769060  41.0120800   2.8140030
 111.1421960  42.0034960   3.8659630 110.3106840  41.7483670   4.2656140
 111.7502940  42.0745730   4.6017550 121.1463560  46.0975340   1.7683000
 120.6845090  45.3262580   2.0970170 121.9589110  46.1241410   2.2735450
 111.1223220  46.0375050   4.0617650 111.4251260  45.1472790   3.8827870
 111.8666810  46.5945270   3.8339900 107.5146920  39.5642500   3.5341720
 108.0863030  38.7964700   3.5345360 107.5148460  39.8631260   2.6248330
 116.5665120  44.3672340   2.9954030 116.4973400  43.4262280   2.8343160
 117.3284980  44.4573750   3.5676600 108.7571790  34.9726860   5.3210650
 108.5774630  34.0752610   5.6013410 108.3551870  35.5198730   5.9957600
 117.5970290  37.1742720   3.2222960 117.9735110  36.3014600   3.1096630
 117.4989800  37.5101420   2.3313400 109.3758460  37.4687360   3.9292990
 110.0568570  37.7325730   4.5480390 109.0606510  36.6288230   4.2631000
 113.5683030  38.5154720   3.0165580 114.0761250  39.0135690   3.6570600
 114.0996270  37.7389920   2.8404940 125.6693960  36.6859910   6.7194930
 124.9646130  37.0741620   6.2010040 125.9351880  37.3810200   7.3215860
 111.8519130  33.1553280   7.2829000 111.8537570  33.6725670   6.4774900
 111.0223440  32.6783460   7.2598930 113.1021980  42.7948460   5.4602500
 112.7691360  43.4217380   6.1023570 113.2788660  43.3210340   4.6804170
 121.6155890  36.6093540   2.9278840 120.9111460  36.8978430   3.5081950
 121.9768050  37.4193650   2.5678400 111.5334460  34.8663240   5.2899450
 111.8751270  35.7105290   4.9953320 110.5950270  35.0146980   5.4064790
 112.3141080  44.7629260   7.2751680 112.9315080  45.4380340   6.9936130
 111.4534200  45.1717240   7.1839180 123.2318670  46.2268670   5.1906320
 122.5482190  46.8967780   5.1822990 123.7712960  46.4249320   4.4251180
 124.6842810  36.0548330   3.3188050 123.7367720  36.0887310   3.4503480
 125.0092800  36.8687280   3.7037410 120.7677410  48.0712800   3.9051500
 120.7804570  47.6675090   3.0373760 120.2152630  48.8460090   3.8012930
 120.1662850  42.9742640   5.2334110 120.5831640  42.7602750   4.3987570
 120.8902670  43.2315430   5.8042730 124.1124950  41.3729860   5.3250350
 123.2843580  41.4422950   4.8500480 124.7075430  41.9584170   4.8566180
 121.0766960  38.1599180   6.2705220 120.6638140  38.9852890   6.5245210
 120.3442910  37.5744220   6.0781580 113.6781450  44.6326640   3.2963100
 113.3809740  44.0272110   2.6170880 114.6281270  44.6703950   3.1852460
 111.9228370  37.7202290   4.9122930 112.4742960  37.8297630   4.1376180
 112.4371880  38.0939890   5.6278160 121.7667060  48.2058510   6.9586200
 121.2897620  49.0130700   6.7658810 121.0828850  47.5536840   7.1112410
 112.7699880  44.3708330   9.9470900 111.8728410  44.5948300  10.1944300
 112.7952750  44.4943270   8.9982300 111.5971100  41.2421650   8.5228270
 111.4578870  42.1144450   8.8915670 110.7152460  40.8994460   8.3776210
 113.3951450  47.1843350  10.7313420 113.3666880  47.5886300   9.8641850
 113.2316420  46.2553710  10.5685020 125.3466270  47.9670450  12.0277590
 125.8225990  48.4453340  12.7066670 125.9673430  47.8987940  11.3023090
 107.5489750  43.0119200   4.4399180 107.6270170  43.1467970   3.4954900
 108.1631430  42.3035090   4.6327300 124.7499520  45.1583300   9.1877600
 124.8762580  44.9195180   8.2694780 124.7920900  44.3267840   9.6599680
 118.6116260  48.8611300   7.7572410 119.1260930  48.7719310   8.5594840
 117.7685340  49.2071000   8.0500320 124.6023530  37.2115760  10.1527340
 123.9867800  37.7195430   9.6242800 124.2819950  36.3114090  10.0953280
 107.6049270  44.0533370   6.9793640 107.7680310  43.5838730   6.1613010
 108.0701720  43.5456930   7.6442480 112.3768040  33.1839130   2.0154210
 111.9336190  33.9648670   1.6838730 112.9353030  33.5069020   2.7225150
 116.6637850  36.0507650   7.6189530 116.2017220  36.2590670   8.4309470
 116.2615960  35.2367000   7.3160200 121.6642360  37.2716600   8.7486190
 120.8135950  36.9722350   9.0695260 121.5044150  37.5158610   7.8370010
 118.7592070  38.7718350  10.8484980 119.0845480  37.9382100  10.5087210
 119.5472400  39.2946870  10.9963310 114.4143940  33.7286460   3.8743810
 114.7116270  34.6349290   3.7935830 114.9629500  33.2405240   3.2603380
 114.6081470  39.2058280  10.4095730 114.5125070  38.2653010  10.2596130
 115.4513450  39.4273350  10.0143800 109.7392010  35.6171950   8.5629510
 109.3455400  36.4647160   8.7702290 109.0510410  34.9798320   8.7538150
 116.3137060  35.7006920  11.6326250 115.6235380  35.5079120  12.2672340
 117.0569360  35.9841560  12.1650550 107.0409060  33.5400410   2.5959590
 106.7522110  34.1103270   3.3084570 107.7854820  33.0604860   2.9590820
 118.5900030  39.5405360   4.4680170 117.8581150  40.0492170   4.8170270
 118.1924370  38.7235340   4.1668950 115.0277420  36.2159560   2.8732660
 115.0313480  35.7749510   2.0237200 115.9228540  36.5376890   2.9804480
 110.8779800  36.0986050   1.8326870 110.5379850  36.5761280   2.5893920
 110.1157120  35.6451170   1.4727970 119.0525940  34.9939040   3.8803110
 119.0698680  35.4447690   4.7244960 118.8041520  34.0944680   4.0936550
 122.4796690  32.4071220   9.7189490 122.8042460  31.6760880  10.2447470
 122.5153200  32.0884860   8.8170480 109.1788250  43.4284800   9.1389450
 108.7943040  42.7878470   9.7372410 109.4900440  44.1320920   9.7084180
 115.3285390  40.2761340   4.6198070 115.6955520  39.8019910   5.3659410
 115.1390450  41.1502910   4.9606410 113.1184760  39.3169980   6.9382280
 112.8141830  40.1961960   7.1632640 114.0731220  39.3769770   6.9739720
 122.4054530  42.5196330   3.3275520 123.1253650  43.0151620   2.9371630
 122.2036350  41.8414220   2.6829390 117.7873330  42.5905390   9.2144520
 117.7210640  41.6701060   8.9602110 117.1578470  42.6880830   9.9289160
 109.1748490  40.1572720   8.0853640 108.8163430  40.8226570   8.6726980
 108.8803050  39.3256270   8.4566260 112.3761610  40.6156960  10.9693190
 112.0761750  40.7614140  10.0721010 113.1472850  40.0562250  10.8766580
 117.7190060  45.4125960   8.9648320 117.7334600  44.4806920   8.7467230
 117.0115160  45.4985720   9.6038090 123.9301270  42.0533300   8.3116900
 123.2049460  42.6462080   8.1146290 124.4576730  42.0456840   7.5130270
 117.1523960  47.0543530   6.0588820 117.7966180  47.2602910   6.7362240
 117.5153400  46.2931930   5.6059670 118.4256040  45.0575880   4.7766270
 119.0678270  44.3569040   4.8898440 118.9505390  45.8374320   4.5963160
 120.1993660  45.8570780   7.9802330 120.5349900  46.4437470   8.6580250
 119.2794000  45.7263490   8.2100120 107.7497060  33.6465960   8.7625740
 107.0355580  33.8462880   9.3678350 108.1692100  32.8705530   9.1340540
 108.0369650  47.6346220   9.7492270 108.1460770  46.6940960   9.6087660
 107.3850210  47.9000970   9.1006000 116.0282240  45.9062110  11.1490390
 115.7079110  45.1871350  11.6936080 115.3540600  46.5817180  11.2226450
 119.2435840  36.1388270   6.5127190 119.6116660  35.3183480   6.8406760
 118.3834040  36.1990160   6.9282840 116.2037830  38.7927860   6.7365160
 116.7023080  39.2673680   7.4017010 116.3460780  37.8691380   6.9435190
 123.4104690  35.0095820   7.5793550 122.9078290  35.7501220   7.9187360
 124.2261350  35.3979820   7.2630340 123.7052280  47.4237850   2.7009170
 123.8299700  48.2469020   3.1732980 124.5717840  47.2128580   2.3533320
 111.1769810  49.5169060   2.3726300 111.9132290  48.9684520   2.6434870
 111.5610730  50.3825070   2.2332290 110.1828090  48.7015130  11.5611880
 110.9840820  49.0227180  11.9747280 109.6679910  48.3410710  12.2831790
 119.0192720  44.8095000  11.5087290 118.4130880  44.8326600  10.7683040
 118.7146830  44.0778040  12.0454540 120.4493090  48.5375290  10.1196700
 121.4014840  48.4533310  10.0696940 120.3021310  49.2017000  10.7930490
 107.9025900  41.1888590  10.5047930 108.4064920  40.6095870  11.0764160
 107.1633320  41.4728820  11.0424300 114.9563840  42.5959580  10.0383450
 114.1909510  43.1644580   9.9538120 115.1379800  42.3035790   9.1451680
 122.0987190  44.3264910  10.5958470 122.8396660  44.6640670  10.0925930
 121.3359870  44.4956970  10.0428240 109.9348980  39.3318180  11.3998000
 109.9754320  39.0332050  12.3083230 110.7894480  39.7325790  11.2405520
 111.8754790  37.9110280   9.3672490 111.3451250  37.4201230   8.7395830
 112.5442860  38.3394480   8.8330420 120.7732850  42.3779740   9.1313680
 121.1873870  42.5324820   9.9804100 119.8383850  42.5034960   9.2939460
 121.2455020  39.7175900  11.1352830 121.8275790  38.9628220  11.0473310
 121.4216790  40.2483340  10.3584310 112.3627090  34.8772650   9.4469780
 112.2683960  34.2593400   8.7220650 111.7824480  35.6038940   9.2199690
 115.1288530  33.4345890   6.4797170 114.6805830  33.4570150   5.6342720
 114.4953730  33.0364910   7.0767470 115.5348080  42.3300220   7.1009610
 115.9536190  43.1732950   6.9285850 114.6156710  42.4672260   6.8716390
 117.8711980  40.0616400   8.4847450 117.9908190  39.4657540   9.2242290
 118.7305980  40.0986090   8.0648750 120.2099880  40.6153590   7.0609960
 119.6835100  41.1396210   6.4575100 120.5531220  41.2480980   7.6919690
 113.3855500  48.6353230   8.2167340 112.8476590  49.3599290   7.8976040
 113.6389460  48.1583570   7.4264680 114.6380750  36.6037750   9.7423270
 115.2280440  36.2953600  10.4301090 113.8200990  36.1317500   9.8983170
 119.4574180  36.2203560   9.9756290 118.7689700  35.5585100   9.9106280
 120.1780200  35.7741830  10.4204750 116.2417710  49.8704440   8.4753990
 116.1676410  50.7739580   8.7826360 115.3396550  49.5516340   8.4476060
 107.6445000  47.1979030   1.7787610 107.9748010  46.3300090   1.5466250
 108.0736000  47.4037550   2.6092570 108.1335210  48.0649620   4.5169240
 107.6966200  48.2450420   5.3493390 108.7012890  48.8224240   4.3750960
 123.7697390  47.5666620   8.8046550 123.1699380  47.6259180   8.0610470
 123.8991290  46.6271600   8.9343400 122.4549030  44.2918600   6.9022710
 121.6408870  44.7215760   7.1648500 122.8623230  44.9037010   6.2891760
 109.0035570  40.9622420   5.4161460 109.3708610  40.8749820   6.2957480
 108.4346390  40.1988970   5.3168320 123.8039430  39.4306800   8.4291930
 123.5725520  39.2019550   7.5289880 124.0643980  40.3506350   8.3836820
 108.5551570  37.8731510   9.3219880 107.6607620  37.8398270   9.6613590
 109.0949120  38.0718300  10.0871130 122.2427500  34.6563230  11.2071630
 123.1197680  34.6646630  11.5905630 122.2548340  33.9194070  10.5963980
 123.6890770  38.5092770   2.0959650 124.2128250  38.0155420   1.4649820
 124.2750190  38.6443130   2.8407220 123.8680490  38.5932640   5.6179200
 122.9183200  38.5596180   5.7324190 124.0493500  39.5032750   5.3828970
 109.0591280  32.1479840   3.6703100 109.7067470  31.5977220   3.2298260
 109.4793120  32.4022990   4.4918910 122.9543620  32.3421200   7.0272740
 123.5915840  32.9555340   7.3931930 123.1018510  32.3781860   6.0821970
 108.8123280  32.3035510   6.4128420 108.4638100  32.7599330   7.1786600
 108.4810980  31.4092640   6.4950850 110.4187650  45.4755110  10.5781610
 110.3757280  45.1048020  11.4596070 110.5498660  46.4132680  10.7183430
 114.1193680  47.0314700   6.1791330 113.8785040  47.2989260   5.2921850
 115.0596320  47.2020430   6.2342190 116.3248100  33.4947390   9.9347840
 116.2636990  34.0869220  10.6843250 117.2648480  33.3873350   9.7898100
 118.9622660  33.1517450   9.5740130 119.5763070  33.4696740   8.9121210
 119.5072220  32.6666040  10.1935990 125.3797840  49.0509080   6.9801970
 124.8856120  49.4477950   6.2629100 124.7711130  48.4258290   7.3739250
 109.4843920  31.8311710   9.6879190 110.0326910  31.6499760   8.9245300
 109.5499230  31.0405820  10.2235500 110.2575680  48.4217360   7.6979390
 109.6636000  48.2902060   8.4369430 110.2499520  47.5855500   7.2321490
 119.7030700  31.7149590   5.9009420 118.8290540  32.0484700   5.6982350
 119.5941450  31.2422770   6.7261290 120.6102680  33.9220460   7.2851140
 120.2816040  33.1072220   6.9052870 121.5584980  33.8790270   7.1616830
 123.0637290  49.6932500   4.2588710 122.6040260  50.4448310   3.8846730
 122.4349750  48.9738970   4.2003510 109.8887910  45.7875740   6.6487430
 109.1621970  45.1681030   6.5813380 109.9497060  46.1816350   5.7785510
 113.4933010  48.0020740   3.4336840 114.0098030  47.3908100   2.9085100
 114.1430390  48.5049520   3.9247850 116.2328510  48.8929230   4.2605820
 116.5206320  48.6383530   3.3838830 116.7451730  48.3406590   4.8511390
 117.4505520  32.6319430   4.8402330 116.6677310  33.1064930   5.1199090
 117.1568450  31.7274260   4.7315510 122.0026590  33.3342530   2.8851420
 122.4434680  33.2787630   2.0373020 121.7334180  34.2500540   2.9561600
 116.3000870  49.8145330  11.6274020 117.2268180  49.5789600  11.6709980
 116.2851300  50.6417330  11.1460050 113.4864480  32.4790080  11.3915900
 113.2048750  32.9823680  10.6276720 113.8684180  31.6811830  11.0258030
 120.0879940  31.8943660  11.9696370 119.9745390  32.2138270  12.8647890
 120.9049680  32.2956170  11.6733650 122.8678430  49.0415190  11.4515060
 123.6603750  48.5464420  11.2441020 123.1611580  49.7205330  12.0590670
 118.9938090  21.1392640  57.4305070 118.9132140  20.2247250  57.1596780
 118.5802510  21.6359710  56.7244780 117.1256130  22.9171660  59.3114340
 116.3498230  22.4372100  59.6012910 117.7769060  22.2377310  59.1370500
 121.1463560  27.3231850  58.0913470 120.6845090  26.5519090  58.4200640
 121.9589110  27.3497920  58.5965920 109.5513910  18.1893360  53.9732490
 108.6630610  18.5309330  53.8712370 109.8355100  17.9893680  53.0813320
 107.5146920  20.7899010  59.8572190 108.0863030  20.0221210  59.8575830
 107.5148460  21.0887770  58.9478800 117.3726870  29.6089860  57.7117460
 116.7538310  30.0647360  57.1411900 118.2278650  29.7641320  57.3107160
 116.5665120  25.5928850  59.3184500 116.4973400  24.6518790  59.1573630
 117.3284980  25.6830260  59.8907070 117.5970290  18.3999230  59.5453430
 117.9735110  17.5271110  59.4327100 117.4989800  18.7357930  58.6543870
 111.7275300  16.7724860  55.0070870 111.8342050  17.6728590  55.3139630
 110.8167660  16.7242830  54.7165520 121.3794410  15.8949670  56.4781770
 122.2004030  15.4046240  56.5207250 121.4128490  16.4847330  57.2313610
 118.2390220  24.4929100  55.1049370 117.6207490  24.9578550  54.5412090
 118.7513470  25.1856580  55.5218880 121.6155890  17.8350050  59.2509310
 120.9111460  18.1234940  59.8312420 121.9768050  18.6450160  58.8908870
 107.6073420  25.1785630  52.4789000 107.2301400  25.6672730  51.7473900
 107.8646490  25.8510910  53.1095530 124.6842810  17.2804840  59.6418520
 123.7367720  17.3143820  59.7733950 125.0092800  18.0943790  60.0267880
 115.2162350  13.5802020  57.9374510 115.5237330  13.0248910  57.2210010
 114.2863050  13.7146480  57.7547500 120.7677410  29.2969310  60.2281970
 120.7804570  28.8931600  59.3604230 120.2152630  30.0716600  60.1243400
 122.0622830  26.0185530  55.3172140 121.9519160  25.0759860  55.4421560
 122.0591080  26.3801170  56.2034900 117.6043110  21.6450850  54.6734630
 116.6772390  21.5788230  54.9023100 117.7567930  22.5830980  54.5589870
 117.5912190  17.9167850  51.6701790 116.6515860  18.0781810  51.7554250
 117.9095450  18.6353530  51.1237780 121.6340400  23.2071150  55.1769880
 121.0152820  22.8690700  54.5296180 121.6164850  22.5630910  55.8849070
 113.2099750  22.1715590  57.4554360 112.8056750  21.4592840  56.9600260
 113.2962870  21.8268830  58.3442400 113.6781450  25.8583150  59.6193570
 113.3809740  25.2528620  58.9401350 114.6281270  25.8960460  59.5082930
 119.8105100  22.4457960  52.1842630 120.2498380  21.6080390  52.0380450
 120.5233520  23.0787360  52.2706770 117.9200480  27.3854030  56.1523870
 118.3596390  28.1278360  55.7379260 117.8587370  27.6280600  57.0762830
 123.3922240  13.7000770  50.4983670 123.0794900  13.7927600  51.3982740
 124.1534710  14.2781800  50.4481100 109.9104380  21.0660570  54.9561010
 109.7901980  21.7922660  54.3442280 109.6005270  20.2963480  54.4788920
 108.7937380  25.9375900  57.1735830 108.3865460  26.0790490  56.3189430
 109.6850390  25.6536060  56.9707040 120.5870660  30.3723150  53.5086880
 120.4271800  30.0826090  54.4068710 120.4217370  29.5963280  52.9732110
 113.0659040  30.1521680  55.2858500 112.8901520  29.2357220  55.0726300
 112.2114780  30.5108970  55.5256300 120.2896790  27.8810710  52.0684880
 119.5961950  27.8788000  51.4087160 121.0319650  27.4570030  51.6379050
 119.8546720  29.5073420  56.1433370 120.3103670  28.7262800  56.4571990
 120.1939240  30.2180240  56.6874550 112.3768040  14.4095640  58.3384680
 111.9336190  15.1905180  58.0069200 112.9353030  14.7325530  59.0455620
 115.4926860  14.0306340  53.2190510 114.8681040  14.0266210  53.9443820
 115.4056980  13.1637300  52.8226480 114.4143940  14.9542970  60.1974280
 114.7116270  15.8605800  60.1166300 114.9629500  14.4661750  59.5833850
 112.1682260  19.5329210  56.0665930 111.9423180  19.3166380  56.9712550
 111.3874790  19.9657670  55.7211900 119.3980020  19.5392580  54.6656580
 118.7988910  20.2628380  54.4820200 119.9459630  19.4769360  53.8833030
 118.0044890  18.1756120  56.6959860 118.3974460  18.4928320  55.8828550
 118.3661740  17.2968000  56.8104380 107.0409060  14.7656920  58.9190060
 106.7522110  15.3359780  59.6315040 107.7854820  14.2861370  59.2821290
 107.2279290  18.7077040  50.1292780 107.1453960  19.6507800  50.2707770
 106.8762350  18.5651950  49.2505130 115.0277420  17.4416070  59.1963130
 115.0313480  17.0006020  58.3467670 115.9228540  17.7633400  59.3034950
 110.8779800  17.3242560  58.1557340 110.5379850  17.8017790  58.9124390
 110.1157120  16.8707680  57.7958440 115.0897570  18.4428150  52.1869890
 115.2110390  18.4014630  53.1355710 114.7046080  19.3052300  52.0316620
 114.1019070  20.7529290  51.5853190 113.5335970  20.3047540  50.9589100
 114.8108070  21.1122070  51.0518340 108.1925880  16.2461540  57.0722010
 107.9072800  15.8817210  57.9100630 108.1304740  15.5142000  56.4585150
 111.6466550  24.7487480  53.8579600 110.8728810  24.2085100  53.6978320
 112.3761180  24.2294090  53.5197360 122.4054530  23.7452840  59.6505990
 123.1253650  24.2408130  59.2602100 122.2036350  23.0670730  59.0059860
 117.8664470  15.1390800  53.7935380 117.0529080  14.6403970  53.7180690
 117.6726420  15.9789050  53.3771730 120.5812860  19.5110450  52.0897540
 121.4692480  19.8227680  51.9148880 120.5517950  18.6382700  51.6978120
 111.6903950  24.4167860  57.4958410 112.2082620  23.6136120  57.4415300
 111.2387970  24.3547000  58.3375240 116.5773450  25.6834140  52.7685710
 116.9189150  26.4276370  52.2729030 115.7486160  25.9965260  53.1310540
 122.8527130  20.8222290  51.5577400 122.7690850  21.2536510  50.7073840
 123.5721320  21.2820640  51.9904220 123.8814380  27.6764550  54.2859530
 123.2390540  27.0220170  54.5603250 123.4945040  28.0819640  53.5100200
 119.4600860  25.0049980  58.1331220 119.8124680  24.4078110  57.4732590
 118.5763190  24.6794210  58.3039470 115.5464140  25.7647670  55.5401630
 116.2335270  26.3116880  55.9209220 114.7596560  26.3088400  55.5751240
 107.6856540  21.3820490  51.0318710 108.5551390  21.6645290  51.3154630
 107.1946860  22.1956360  50.9167520 114.8491350  22.7693700  55.1526990
 115.3054130  23.5798950  55.3787180 114.4979560  22.4516840  55.9845480
 110.7503130  13.1131350  55.6249510 110.6217760  13.1049250  56.5734430
 109.9265150  13.4514440  55.2740520 122.2711760  26.5681010  50.8235880
 122.0449340  25.8511450  51.4160520 121.8807960  26.3193450  49.9857630
 108.0527790  30.5947870  51.5980340 108.4125430  31.1937210  50.9437610
 107.9120130  31.1407760  52.3715370 121.8528010  24.4852950  52.4850040
 121.5649710  24.9465640  53.2727920 122.6480180  24.0250720  52.7534260
 114.0696410  27.9779070  52.4154010 114.0606510  28.7108760  51.7998520
 113.1494770  27.7310650  52.5080970 109.6703050  23.1993960  53.1600770
 109.0631000  23.9392860  53.1696070 110.1452400  23.2893320  52.3338970
 122.6097870  16.3201720  53.6445220 121.9811030  16.4247390  52.9303450
 122.1149790  16.5398500  54.4339100 117.0556010  28.0407310  51.0779200
 117.1567990  27.8371300  50.1481180 116.1557750  27.7865590  51.2826980
 114.5781900  18.5987670  55.0603100 113.8698050  19.0674010  55.5016710
 114.8626380  17.9409680  55.6948290 118.6097330  15.3238330  56.4998890
 118.4865110  15.3424460  55.5508400 119.5581890  15.3717270  56.6197290
 115.6974120  30.5593630  55.7726870 115.9515620  30.5215020  54.8506240
 114.7486600  30.4326960  55.7655120 112.7816920  16.9072750  52.4353810
 113.6307450  17.3442900  52.3694000 112.4148190  17.2193010  53.2625870
 121.7026700  21.4785510  57.3485380 120.7616840  21.4935740  57.5233070
 122.0170770  20.6921470  57.7945680 111.6808340  23.1605110  50.9089340
 112.4471610  23.0486470  51.4714770 111.7583030  22.4643080  50.2566110
 110.3755100  20.5930180  51.5922230 110.4558690  19.6457690  51.7039630
 111.2674850  20.9237060  51.6982890 123.7052280  28.6494360  59.0239640
 123.8299700  29.4725530  59.4963450 124.5717840  28.4385090  58.6763790
 111.1769810  30.7425570  58.6956770 111.9132290  30.1941030  58.9665340
 111.5610730  31.6081580  58.5562760 108.0615290  26.8099140  54.5698280
 107.1355070  27.0520280  54.5603690 108.5271720  27.6373400  54.4483030
 114.2872120  29.9155880  50.5182340 115.0800730  30.2044710  50.0664130
 113.7676470  29.4848050  49.8394820 123.3402290  29.1426010  51.9419080
 123.0543800  28.7291150  51.1273260 123.1421840  30.0713720  51.8219600
 114.8049520  25.1359290  50.3824690 114.7000160  24.5211640  51.1086070
 114.6373740  24.6125180  49.5987700 118.0452250  24.1979320  50.9866680
 117.4962350  24.6448620  51.6309420 118.6671510  23.6928570  51.5104350
 113.7127370  23.1570240  52.8831980 114.1343790  22.9910110  53.7263370
 113.8378210  22.3470470  52.3887120 116.2255010  22.1807850  50.1309080
 116.7460670  21.4656870  49.7650230 116.8723410  22.8193720  50.4309590
 112.6086270  19.2303470  49.8290140 112.4075330  18.3670830  50.1903480
 112.4378320  19.1436830  48.8911740 120.0874580  14.0411700  52.3577020
 120.3676870  13.1979600  52.7136440 119.3140310  14.2734810  52.8715770
 111.4069070  16.3304090  49.8168020 111.7094970  16.3371520  48.9087170
 112.1463660  15.9801950  50.3135680 114.6254000  15.2738710  50.8024220
 114.2776000  14.5962700  50.2226670 114.8266770  14.8128220  51.6167610
 116.7903040  30.2619460  52.4210820 117.6853830  30.6004430  52.4429580
 116.8220670  29.5398870  51.7935100 110.4299200  25.6346510  50.6497820
 110.8674070  26.1776180  51.3055400 110.9146930  24.8093460  50.6594160
 107.6445000  28.4235540  58.1018080 107.9748010  27.5556600  57.8696720
 108.0736000  28.6294060  58.9323040 112.2406920  26.7544550  55.7620050
 111.9402460  26.6309520  56.6623960 112.1344410  25.8953140  55.3535780
 125.0098840  26.5340950  50.4646730 124.1791800  26.6017600  50.9353960
 125.1870670  27.4245070  50.1613590 124.4655300  23.2788430  52.9680930
 125.2274210  23.8485080  53.0740620 124.4809670  22.7115630  53.7389240
 107.9659640  21.8026360  57.1988590 107.3108480  21.5338000  56.5548290
 108.8037590  21.6930840  56.7490570 125.4715270  24.1338530  57.8122860
 125.8424100  23.3505850  57.4058830 126.1117200  24.8227630  57.6340160
 124.5174470  23.5722800  50.1253450 124.7923310  24.4801680  49.9972670
 124.3285210  23.5085330  51.0615440 120.9150080  16.5967650  51.4207080
 121.3334960  16.4098630  50.5803740 120.6086140  15.7446700  51.7310010
 124.4139810  21.5091790  55.1182880 124.0383410  20.7419720  54.6864170
 123.6842930  21.8914490  55.6057810 107.1797720  19.0125290  53.1413920
 106.2761800  19.2755490  52.9665580 107.6638340  19.2836460  52.3613880
 123.6890770  19.7349280  58.4190120 124.2128250  19.2411930  57.7880290
 124.2750190  19.8699640  59.1637690 109.7224930  18.0690830  51.0508300
 110.4316630  17.6474050  50.5655580 109.0064870  18.1366060  50.4191650
 109.3699090  14.1230160  50.0910950 110.0927220  14.6639100  50.4092170
 109.6423610  13.8493580  49.2152490 123.1790740  18.9922630  54.3582530
 123.6749860  18.7593500  55.1431410 122.9806810  18.1534470  53.9420170
 124.6077900  17.6283580  56.8920210 124.4977180  17.4739620  57.8302480
 125.3685490  17.1004520  56.6495620 125.4968170  15.4591500  50.1326350
 126.4217480  15.3272680  49.9244640 125.4743960  15.5384320  51.0862800
 125.5706660  16.2302160  52.7583060 124.7758160  16.1647280  53.2875970
 125.7749940  17.1652800  52.7468410 122.5125080  30.2693710  56.7521450
 123.1084150  29.9478280  56.0755870 122.7703230  29.7965530  57.5434720
 113.4933010  29.2277250  59.7567310 114.0098030  28.6164610  59.2315570
 114.1430390  29.7306030  60.2478320 122.0026590  14.5599040  59.2081890
 122.4434680  14.5044140  58.3603490 121.7334180  15.4757050  59.2792070
 123.8665160  14.1914280  57.2190710 123.8053560  13.2475500  57.0721730
 124.6457190  14.2994370  57.7644170 108.1717910  30.3306640  56.1814660
 108.0039950  29.6977320  56.8796550 107.3052420  30.5366040  55.8308850
 108.7945930  14.1623420  53.6846520 109.5525290  14.2752300  53.1110550
 108.3323100  14.9992620  53.6389950 115.3359740  16.2762690  56.6748830
 114.5234250  15.9019580  56.3344710 115.8401380  15.5207770  56.9770020
 119.8384720  12.9405140  57.9131900 120.4414090  13.5125350  58.3880420
 119.0977710  13.5044580  57.6905800 122.9819320  13.3426700  53.1872180
 123.1769950  14.2410150  53.4539610 122.1949190  13.1113780  53.6805130
 109.7780610  29.0239870  53.6264800 109.2528230  29.4047900  52.9226760
 109.7025190  29.6490640  54.3474510 111.1671080  14.6887470  52.2248490
 111.6963840  13.9017270  52.0956440 111.7999400  15.3678660  52.4584020
 113.3608920  14.4262610  55.2793880 112.7311660  13.7249920  55.4464010
 112.8214060  15.1866740  55.0627040 124.5345930  30.5827410  54.9478740
 124.7098120  29.8965150  54.3039660 123.8367500  31.1074460  54.5555410
 112.3773580  30.9722250  52.5014050 113.1092400  30.6881530  51.9537940
 112.6367250  30.7335530  53.3913430 111.5388370  27.0886980  52.5060380
 110.9097250  27.5572080  53.0546210 111.6536200  26.2436200  52.9406570
 118.9938090  21.1392640  38.6561580 118.9132140  20.2247250  38.3853290
 118.5802510  21.6359710  37.9501290 117.1256130  22.9171660  40.5370850
 116.3498230  22.4372100  40.8269420 117.7769060  22.2377310  40.3627010
 111.1421960  23.2291470  41.4146610 110.3106840  22.9740180  41.8143120
 111.7502940  23.3002240  42.1504530 121.1463560  27.3231850  39.3169980
 120.6845090  26.5519090  39.6457150 121.9589110  27.3497920  39.8222430
 111.1223220  27.2631560  41.6104630 111.4251260  26.3729300  41.4314850
 111.8666810  27.8201780  41.3826880 109.5513910  18.1893360  35.1989000
 108.6630610  18.5309330  35.0968880 109.8355100  17.9893680  34.3069830
 107.5146920  20.7899010  41.0828700 108.0863030  20.0221210  41.0832340
 107.5148460  21.0887770  40.1735310 117.3726870  29.6089860  38.9373970
 116.7538310  30.0647360  38.3668410 118.2278650  29.7641320  38.5363670
 116.5665120  25.5928850  40.5441010 116.4973400  24.6518790  40.3830140
 117.3284980  25.6830260  41.1163580 108.7571790  16.1983370  42.8697630
 108.5774630  15.3009120  43.1500390 108.3551870  16.7455240  43.5444580
 117.5970290  18.3999230  40.7709940 117.9735110  17.5271110  40.6583610
 117.4989800  18.7357930  39.8800380 111.7275300  16.7724860  36.2327380
 111.8342050  17.6728590  36.5396140 110.8167660  16.7242830  35.9422030
 121.3794410  15.8949670  37.7038280 122.2004030  15.4046240  37.7463760
 121.4128490  16.4847330  38.4570120 109.3758460  18.6943870  41.4779970
 110.0568570  18.9582240  42.0967370 109.0606510  17.8544740  41.8117980
 113.5683030  19.7411230  40.5652560 114.0761250  20.2392200  41.2057580
 114.0996270  18.9646430  40.3891920 125.6693960  17.9116420  44.2681910
 124.9646130  18.2998130  43.7497020 125.9351880  18.6066710  44.8702840
 111.8519130  14.3809790  44.8315980 111.8537570  14.8982180  44.0261880
 111.0223440  13.9039970  44.8085910 118.2390220  24.4929100  36.3305880
 117.6207490  24.9578550  35.7668600 118.7513470  25.1856580  36.7475390
 113.1021980  24.0204970  43.0089480 112.7691360  24.6473890  43.6510550
 113.2788660  24.5466850  42.2291150 121.6155890  17.8350050  40.4765820
 120.9111460  18.1234940  41.0568930 121.9768050  18.6450160  40.1165380
 111.5334460  16.0919750  42.8386430 111.8751270  16.9361800  42.5440300
 110.5950270  16.2403490  42.9551770 112.3141080  25.9885770  44.8238660
 112.9315080  26.6636850  44.5423110 111.4534200  26.3973750  44.7326160
 123.2318670  27.4525180  42.7393300 122.5482190  28.1224290  42.7309970
 123.7712960  27.6505830  41.9738160 124.6842810  17.2804840  40.8675030
 123.7367720  17.3143820  40.9990460 125.0092800  18.0943790  41.2524390
 115.2162350  13.5802020  39.1631020 115.5237330  13.0248910  38.4466520
 114.2863050  13.7146480  38.9804010 120.7677410  29.2969310  41.4538480
 120.7804570  28.8931600  40.5860740 120.2152630  30.0716600  41.3499910
 122.0622830  26.0185530  36.5428650 121.9519160  25.0759860  36.6678070
 122.0591080  26.3801170  37.4291410 120.1662850  24.1999150  42.7821090
 120.5831640  23.9859260  41.9474550 120.8902670  24.4571940  43.3529710
 117.6043110  21.6450850  35.8991140 116.6772390  21.5788230  36.1279610
 117.7567930  22.5830980  35.7846380 124.1124950  22.5986370  42.8737330
 123.2843580  22.6679460  42.3987460 124.7075430  23.1840680  42.4053160
 121.6340400  23.2071150  36.4026390 121.0152820  22.8690700  35.7552690
 121.6164850  22.5630910  37.1105580 121.0766960  19.3855690  43.8192200
 120.6638140  20.2109400  44.0732190 120.3442910  18.8000730  43.6268560
 113.2099750  22.1715590  38.6810870 112.8056750  21.4592840  38.1856770
 113.2962870  21.8268830  39.5698910 113.6781450  25.8583150  40.8450080
 113.3809740  25.2528620  40.1657860 114.6281270  25.8960460  40.7339440
 111.9228370  18.9458800  42.4609910 112.4742960  19.0554140  41.6863160
 112.4371880  19.3196400  43.1765140 121.7667060  29.4315020  44.5073180
 121.2897620  30.2387210  44.3145790 121.0828850  28.7793350  44.6599390
 112.7699880  25.5964840  47.4957880 111.8728410  25.8204810  47.7431280
 112.7952750  25.7199780  46.5469280 119.8105100  22.4457960  33.4099140
 120.2498380  21.6080390  33.2636960 120.5233520  23.0787360  33.4963280
 111.5971100  22.4678160  46.0715250 111.4578870  23.3400960  46.4402650
 110.7152460  22.1250970  45.9263190 117.9200480  27.3854030  37.3780380
 118.3596390  28.1278360  36.9635770 117.8587370  27.6280600  38.3019340
 113.3951450  28.4099860  48.2800400 113.3666880  28.8142810  47.4128830
 113.2316420  27.4810220  48.1172000 123.3922240  13.7000770  31.7240180
 123.0794900  13.7927600  32.6239250 124.1534710  14.2781800  31.6737610
 125.3466270  29.1926960  49.5764570 125.8225990  29.6709850  50.2553650
 125.9673430  29.1244450  48.8510070 107.5489750  24.2375710  41.9886160
 107.6270170  24.3724480  41.0441880 108.1631430  23.5291600  42.1814280
 124.7499520  26.3839810  46.7364580 124.8762580  26.1451690  45.8181760
 124.7920900  25.5524350  47.2086660 118.6116260  30.0867810  45.3059390
 119.1260930  29.9975820  46.1081820 117.7685340  30.4327510  45.5987300
 120.5870660  30.3723150  34.7343390 120.4271800  30.0826090  35.6325220
 120.4217370  29.5963280  34.1988620 120.2896790  27.8810710  33.2941390
 119.5961950  27.8788000  32.6343670 121.0319650  27.4570030  32.8635560
 119.8546720  29.5073420  37.3689880 120.3103670  28.7262800  37.6828500
 120.1939240  30.2180240  37.9131060 124.6023530  18.4372270  47.7014320
 123.9867800  18.9451940  47.1729780 124.2819950  17.5370600  47.6440260
 107.6049270  25.2789880  44.5280620 107.7680310  24.8095240  43.7099990
 108.0701720  24.7713440  45.1929460 112.3768040  14.4095640  39.5641190
 111.9336190  15.1905180  39.2325710 112.9353030  14.7325530  40.2712130
 116.6637850  17.2764160  45.1676510 116.2017220  17.4847180  45.9796450
 116.2615960  16.4623510  44.8647180 121.6642360  18.4973110  46.2973170
 120.8135950  18.1978860  46.6182240 121.5044150  18.7415120  45.3856990
 118.7592070  19.9974860  48.3971960 119.0845480  19.1638610  48.0574190
 119.5472400  20.5203380  48.5450290 115.4926860  14.0306340  34.4447020
 114.8681040  14.0266210  35.1700330 115.4056980  13.1637300  34.0482990
 114.4143940  14.9542970  41.4230790 114.7116270  15.8605800  41.3422810
 114.9629500  14.4661750  40.8090360 112.1682260  19.5329210  37.2922440
 111.9423180  19.3166380  38.1969060 111.3874790  19.9657670  36.9468410
 119.3980020  19.5392580  35.8913090 118.7988910  20.2628380  35.7076710
 119.9459630  19.4769360  35.1089540 114.6081470  20.4314790  47.9582710
 114.5125070  19.4909520  47.8083110 115.4513450  20.6529860  47.5630780
 118.0044890  18.1756120  37.9216370 118.3974460  18.4928320  37.1085060
 118.3661740  17.2968000  38.0360890 109.7392010  16.8428460  46.1116490
 109.3455400  17.6903670  46.3189270 109.0510410  16.2054830  46.3025130
 116.3137060  16.9263430  49.1813230 115.6235380  16.7335630  49.8159320
 117.0569360  17.2098070  49.7137530 107.0409060  14.7656920  40.1446570
 106.7522110  15.3359780  40.8571550 107.7854820  14.2861370  40.5077800
 107.2279290  18.7077040  31.3549290 107.1453960  19.6507800  31.4964280
 106.8762350  18.5651950  30.4761640 118.5900030  20.7661870  42.0167150
 117.8581150  21.2748680  42.3657250 118.1924370  19.9491850  41.7155930
 115.0277420  17.4416070  40.4219640 115.0313480  17.0006020  39.5724180
 115.9228540  17.7633400  40.5291460 110.8779800  17.3242560  39.3813850
 110.5379850  17.8017790  40.1380900 110.1157120  16.8707680  39.0214950
 115.0897570  18.4428150  33.4126400 115.2110390  18.4014630  34.3612220
 114.7046080  19.3052300  33.2573130 119.0525940  16.2195550  41.4290090
 119.0698680  16.6704200  42.2731940 118.8041520  15.3201190  41.6423530
 114.1019070  20.7529290  32.8109700 113.5335970  20.3047540  32.1845610
 114.8108070  21.1122070  32.2774850 122.4796690  13.6327730  47.2676470
 122.8042460  12.9017390  47.7934450 122.5153200  13.3141370  46.3657460
 109.1788250  24.6541310  46.6876430 108.7943040  24.0134980  47.2859390
 109.4900440  25.3577430  47.2571160 115.3285390  21.5017850  42.1685050
 115.6955520  21.0276420  42.9146390 115.1390450  22.3759420  42.5093390
 108.1925880  16.2461540  38.2978520 107.9072800  15.8817210  39.1357140
 108.1304740  15.5142000  37.6841660 113.1184760  20.5426490  44.4869260
 112.8141830  21.4218470  44.7119620 114.0731220  20.6026280  44.5226700
 122.4054530  23.7452840  40.8762500 123.1253650  24.2408130  40.4858610
 122.2036350  23.0670730  40.2316370 117.8664470  15.1390800  35.0191890
 117.0529080  14.6403970  34.9437200 117.6726420  15.9789050  34.6028240
 117.7873330  23.8161900  46.7631500 117.7210640  22.8957570  46.5089090
 117.1578470  23.9137340  47.4776140 120.5812860  19.5110450  33.3154050
 121.4692480  19.8227680  33.1405390 120.5517950  18.6382700  32.9234630
 111.6903950  24.4167860  38.7214920 112.2082620  23.6136120  38.6671810
 111.2387970  24.3547000  39.5631750 116.5773450  25.6834140  33.9942220
 116.9189150  26.4276370  33.4985540 115.7486160  25.9965260  34.3567050
 109.1748490  21.3829230  45.6340620 108.8163430  22.0483080  46.2213960
 108.8803050  20.5512780  46.0053240 112.3761610  21.8413470  48.5180170
 112.0761750  21.9870650  47.6207990 113.1472850  21.2818760  48.4253560
 117.7190060  26.6382470  46.5135300 117.7334600  25.7063430  46.2954210
 117.0115160  26.7242230  47.1525070 122.8527130  20.8222290  32.7833910
 122.7690850  21.2536510  31.9330350 123.5721320  21.2820640  33.2160730
 123.9301270  23.2789810  45.8603880 123.2049460  23.8718590  45.6633270
 124.4576730  23.2713350  45.0617250 123.8814380  27.6764550  35.5116040
 123.2390540  27.0220170  35.7859760 123.4945040  28.0819640  34.7356710
 119.4600860  25.0049980  39.3587730 119.8124680  24.4078110  38.6989100
 118.5763190  24.6794210  39.5295980 115.5464140  25.7647670  36.7658140
 116.2335270  26.3116880  37.1465730 114.7596560  26.3088400  36.8007750
 107.6856540  21.3820490  32.2575220 108.5551390  21.6645290  32.5411140
 107.1946860  22.1956360  32.1424030 114.8491350  22.7693700  36.3783500
 115.3054130  23.5798950  36.6043690 114.4979560  22.4516840  37.2101990
 117.1523960  28.2800040  43.6075800 117.7966180  28.4859420  44.2849220
 117.5153400  27.5188440  43.1546650 110.7503130  13.1131350  36.8506020
 110.6217760  13.1049250  37.7990940 109.9265150  13.4514440  36.4997030
 118.4256040  26.2832390  42.3253250 119.0678270  25.5825550  42.4385420
 118.9505390  27.0630830  42.1450140 122.2711760  26.5681010  32.0492390
 122.0449340  25.8511450  32.6417030 121.8807960  26.3193450  31.2114140
 120.1993660  27.0827290  45.5289310 120.5349900  27.6693980  46.2067230
 119.2794000  26.9520000  45.7587100 107.7497060  14.8722470  46.3112720
 107.0355580  15.0719390  46.9165330 108.1692100  14.0962040  46.6827520
 121.8528010  24.4852950  33.7106550 121.5649710  24.9465640  34.4984430
 122.6480180  24.0250720  33.9790770 108.0369650  28.8602730  47.2979250
 108.1460770  27.9197470  47.1574640 107.3850210  29.1257480  46.6492980
 116.0282240  27.1318620  48.6977370 115.7079110  26.4127860  49.2423060
 115.3540600  27.8073690  48.7713430 114.0696410  27.9779070  33.6410520
 114.0606510  28.7108760  33.0255030 113.1494770  27.7310650  33.7337480
 119.2435840  17.3644780  44.0614170 119.6116660  16.5439990  44.3893740
 118.3834040  17.4246670  44.4769820 122.6097870  16.3201720  34.8701730
 121.9811030  16.4247390  34.1559960 122.1149790  16.5398500  35.6595610
 117.0556010  28.0407310  32.3035710 117.1567990  27.8371300  31.3737690
 116.1557750  27.7865590  32.5083490 114.5781900  18.5987670  36.2859610
 113.8698050  19.0674010  36.7273220 114.8626380  17.9409680  36.9204800
 116.2037830  20.0184370  44.2852140 116.7023080  20.4930190  44.9503990
 116.3460780  19.0947890  44.4922170 118.6097330  15.3238330  37.7255400
 118.4865110  15.3424460  36.7764910 119.5581890  15.3717270  37.8453800
 115.6974120  30.5593630  36.9983380 115.9515620  30.5215020  36.0762750
 114.7486600  30.4326960  36.9911630 112.7816920  16.9072750  33.6610320
 113.6307450  17.3442900  33.5950510 112.4148190  17.2193010  34.4882380
 123.4104690  16.2352330  45.1280530 122.9078290  16.9757730  45.4674340
 124.2261350  16.6236330  44.8117320 121.7026700  21.4785510  38.5741890
 120.7616840  21.4935740  38.7489580 122.0170770  20.6921470  39.0202190
 111.6808340  23.1605110  32.1345850 112.4471610  23.0486470  32.6971280
 111.7583030  22.4643080  31.4822620 110.3755100  20.5930180  32.8178740
 110.4558690  19.6457690  32.9296140 111.2674850  20.9237060  32.9239400
 123.7052280  28.6494360  40.2496150 123.8299700  29.4725530  40.7219960
 124.5717840  28.4385090  39.9020300 110.1828090  29.9271640  49.1098860
 110.9840820  30.2483690  49.5234260 109.6679910  29.5667220  49.8318770
 119.0192720  26.0351510  49.0574270 118.4130880  26.0583110  48.3170020
 118.7146830  25.3034550  49.5941520 120.4493090  29.7631800  47.6683680
 121.4014840  29.6789820  47.6183920 120.3021310  30.4273510  48.3417470
 123.3402290  29.1426010  33.1675590 123.0543800  28.7291150  32.3529770
 123.1421840  30.0713720  33.0476110 107.9025900  22.4145100  48.0534910
 108.4064920  21.8352380  48.6251140 107.1633320  22.6985330  48.5911280
 114.8049520  25.1359290  31.6081200 114.7000160  24.5211640  32.3342580
 114.6373740  24.6125180  30.8244210 114.9563840  23.8216090  47.5870430
 114.1909510  24.3901090  47.5025100 115.1379800  23.5292300  46.6938660
 122.0987190  25.5521420  48.1445450 122.8396660  25.8897180  47.6412910
 121.3359870  25.7213480  47.5915220 109.9348980  20.5574690  48.9484980
 109.9754320  20.2588560  49.8570210 110.7894480  20.9582300  48.7892500
 113.7127370  23.1570240  34.1088490 114.1343790  22.9910110  34.9519880
 113.8378210  22.3470470  33.6143630 111.8754790  19.1366790  46.9159470
 111.3451250  18.6457740  46.2882810 112.5442860  19.5650990  46.3817400
 116.2255010  22.1807850  31.3565590 116.7460670  21.4656870  30.9906740
 116.8723410  22.8193720  31.6566100 120.7732850  23.6036250  46.6800660
 121.1873870  23.7581330  47.5291080 119.8383850  23.7291470  46.8426440
 121.2455020  20.9432410  48.6839810 121.8275790  20.1884730  48.5960290
 121.4216790  21.4739850  47.9071290 112.3627090  16.1029160  46.9956760
 112.2683960  15.4849910  46.2707630 111.7824480  16.8295450  46.7686670
 115.1288530  14.6602400  44.0284150 114.6805830  14.6826660  43.1829700
 114.4953730  14.2621420  44.6254450 115.5348080  23.5556730  44.6496590
 115.9536190  24.3989460  44.4772830 114.6156710  23.6928770  44.4203370
 117.8711980  21.2872910  46.0334430 117.9908190  20.6914050  46.7729270
 118.7305980  21.3242600  45.6135730 120.2099880  21.8410100  44.6096940
 119.6835100  22.3652720  44.0062080 120.5531220  22.4737490  45.2406670
 112.6086270  19.2303470  31.0546650 112.4075330  18.3670830  31.4159990
 112.4378320  19.1436830  30.1168250 113.3855500  29.8609740  45.7654320
 112.8476590  30.5855800  45.4463020 113.6389460  29.3840080  44.9751660
 114.6380750  17.8294260  47.2910250 115.2280440  17.5210110  47.9788070
 113.8200990  17.3574010  47.4470150 119.4574180  17.4460070  47.5243270
 118.7689700  16.7841610  47.4593260 120.1780200  16.9998340  47.9691730
 120.0874580  14.0411700  33.5833530 120.3676870  13.1979600  33.9392950
 119.3140310  14.2734810  34.0972280 111.4069070  16.3304090  31.0424530
 111.7094970  16.3371520  30.1343680 112.1463660  15.9801950  31.5392190
 116.2417710  31.0960950  46.0240970 116.1676410  31.9996090  46.3313340
 115.3396550  30.7772850  45.9963040 114.6254000  15.2738710  32.0280730
 114.2776000  14.5962700  31.4483180 114.8266770  14.8128220  32.8424120
 116.7903040  30.2619460  33.6467330 117.6853830  30.6004430  33.6686090
 116.8220670  29.5398870  33.0191610 108.1335210  29.2906130  42.0656220
 107.6966200  29.4706930  42.8980370 108.7012890  30.0480750  41.9237940
 123.7697390  28.7923130  46.3533530 123.1699380  28.8515690  45.6097450
 123.8991290  27.8528110  46.4830380 125.0098840  26.5340950  31.6903240
 124.1791800  26.6017600  32.1610470 125.1870670  27.4245070  31.3870100
 124.4655300  23.2788430  34.1937440 125.2274210  23.8485080  34.2997130
 124.4809670  22.7115630  34.9645750 107.9659640  21.8026360  38.4245100
 107.3108480  21.5338000  37.7804800 108.8037590  21.6930840  37.9747080
 125.4715270  24.1338530  39.0379370 125.8424100  23.3505850  38.6315340
 126.1117200  24.8227630  38.8596670 122.4549030  25.5175110  44.4509690
 121.6408870  25.9472270  44.7135480 122.8623230  26.1293520  43.8378740
 124.5174470  23.5722800  31.3509960 124.7923310  24.4801680  31.2229180
 124.3285210  23.5085330  32.2871950 120.9150080  16.5967650  32.6463590
 121.3334960  16.4098630  31.8060250 120.6086140  15.7446700  32.9566520
 124.4139810  21.5091790  36.3439390 124.0383410  20.7419720  35.9120680
 123.6842930  21.8914490  36.8314320 109.0035570  22.1878930  42.9648440
 109.3708610  22.1006330  43.8444460 108.4346390  21.4245480  42.8655300
 123.8039430  20.6563310  45.9778910 123.5725520  20.4276060  45.0776860
 124.0643980  21.5762860  45.9323800 108.5551570  19.0988020  46.8706860
 107.6607620  19.0654780  47.2100570 109.0949120  19.2974810  47.6358110
 122.2427500  15.8819740  48.7558610 123.1197680  15.8903140  49.1392610
 122.2548340  15.1450580  48.1450960 107.1797720  19.0125290  34.3670430
 106.2761800  19.2755490  34.1922090 107.6638340  19.2836460  33.5870390
 123.6890770  19.7349280  39.6446630 124.2128250  19.2411930  39.0136800
 124.2750190  19.8699640  40.3894200 123.8680490  19.8189150  43.1666180
 122.9183200  19.7852690  43.2811170 124.0493500  20.7289260  42.9315950
 109.7224930  18.0690830  32.2764810 110.4316630  17.6474050  31.7912090
 109.0064870  18.1366060  31.6448160 109.3699090  14.1230160  31.3167460
 110.0927220  14.6639100  31.6348680 109.6423610  13.8493580  30.4409000
 123.1790740  18.9922630  35.5839040 123.6749860  18.7593500  36.3687920
 122.9806810  18.1534470  35.1676680 109.0591280  13.3736350  41.2190080
 109.7067470  12.8233730  40.7785240 109.4793120  13.6279500  42.0405890
 124.6077900  17.6283580  38.1176720 124.4977180  17.4739620  39.0558990
 125.3685490  17.1004520  37.8752130 122.9543620  13.5677710  44.5759720
 123.5915840  14.1811850  44.9418910 123.1018510  13.6038370  43.6308950
 125.4968170  15.4591500  31.3582860 126.4217480  15.3272680  31.1501150
 125.4743960  15.5384320  32.3119310 125.5706660  16.2302160  33.9839570
 124.7758160  16.1647280  34.5132480 125.7749940  17.1652800  33.9724920
 122.5125080  30.2693710  37.9777960 123.1084150  29.9478280  37.3012380
 122.7703230  29.7965530  38.7691230 108.8123280  13.5292020  43.9615400
 108.4638100  13.9855840  44.7273580 108.4810980  12.6349150  44.0437830
 110.4187650  26.7011620  48.1268590 110.3757280  26.3304530  49.0083050
 110.5498660  27.6389190  48.2670410 114.1193680  28.2571210  43.7278310
 113.8785040  28.5245770  42.8408830 115.0596320  28.4276940  43.7829170
 116.3248100  14.7203900  47.4834820 116.2636990  15.3125730  48.2330230
 117.2648480  14.6129860  47.3385080 118.9622660  14.3773960  47.1227110
 119.5763070  14.6953250  46.4608190 119.5072220  13.8922550  47.7422970
 125.3797840  30.2765590  44.5288950 124.8856120  30.6734460  43.8116080
 124.7711130  29.6514800  44.9226230 109.4843920  13.0568220  47.2366170
 110.0326910  12.8756270  46.4732280 109.5499230  12.2662330  47.7722480
 110.2575680  29.6473870  45.2466370 109.6636000  29.5158570  45.9856410
 110.2499520  28.8112010  44.7808470 119.7030700  12.9406100  43.4496400
 118.8290540  13.2741210  43.2469330 119.5941450  12.4679280  44.2748270
 120.6102680  15.1476970  44.8338120 120.2816040  14.3328730  44.4539850
 121.5584980  15.1046780  44.7103810 123.0637290  30.9189010  41.8075690
 122.6040260  31.6704820  41.4333710 122.4349750  30.1995480  41.7490490
 109.8887910  27.0132250  44.1974410 109.1621970  26.3937540  44.1300360
 109.9497060  27.4072860  43.3272490 113.4933010  29.2277250  40.9823820
 114.0098030  28.6164610  40.4572080 114.1430390  29.7306030  41.4734830
 116.2328510  30.1185740  41.8092800 116.5206320  29.8640040  40.9325810
 116.7451730  29.5663100  42.3998370 117.4505520  13.8575940  42.3889310
 116.6677310  14.3321440  42.6686070 117.1568450  12.9530770  42.2802490
 122.0026590  14.5599040  40.4338400 122.4434680  14.5044140  39.5860000
 121.7334180  15.4757050  40.5048580 123.8665160  14.1914280  38.4447220
 123.8053560  13.2475500  38.2978240 124.6457190  14.2994370  38.9900680
 108.7945930  14.1623420  34.9103030 109.5525290  14.2752300  34.3367060
 108.3323100  14.9992620  34.8646460 115.3359740  16.2762690  37.9005340
 114.5234250  15.9019580  37.5601220 115.8401380  15.5207770  38.2026530
 119.8384720  12.9405140  39.1388410 120.4414090  13.5125350  39.6136930
 119.0977710  13.5044580  38.9162310 122.9819320  13.3426700  34.4128690
 123.1769950  14.2410150  34.6796120 122.1949190  13.1113780  34.9061640
 111.1671080  14.6887470  33.4505000 111.6963840  13.9017270  33.3212950
 111.7999400  15.3678660  33.6840530 113.3608920  14.4262610  36.5050390
 112.7311660  13.7249920  36.6720520 112.8214060  15.1866740  36.2883550
 116.3000870  31.0401840  49.1761000 117.2268180  30.8046110  49.2196960
 116.2851300  31.8673840  48.6947030 124.5345930  30.5827410  36.1735250
 124.7098120  29.8965150  35.5296170 123.8367500  31.1074460  35.7811920
 113.4864480  13.7046590  48.9402880 113.2048750  14.2080190  48.1763700
 113.8684180  12.9068340  48.5745010 120.0879940  13.1200170  49.5183350
 119.9745390  13.4394780  50.4134870 120.9049680  13.5212680  49.2220630
 122.8678430  30.2671700  49.0002040 123.6603750  29.7720930  48.7928000
 123.1611580  30.9461840  49.6077650 118.9938090  21.1392640  19.8818090
 118.9132140  20.2247250  19.6109800 118.5802510  21.6359710  19.1757800
 117.1256130  22.9171660  21.7627360 116.3498230  22.4372100  22.0525930
 117.7769060  22.2377310  21.5883520 111.1421960  23.2291470  22.6403120
 110.3106840  22.9740180  23.0399630 111.7502940  23.3002240  23.3761040
 121.1463560  27.3231850  20.5426490 120.6845090  26.5519090  20.8713660
 121.9589110  27.3497920  21.0478940 111.1223220  27.2631560  22.8361140
 111.4251260  26.3729300  22.6571360 111.8666810  27.8201780  22.6083390
 109.5513910  18.1893360  16.4245510 108.6630610  18.5309330  16.3225390
 109.8355100  17.9893680  15.5326340 107.5146920  20.7899010  22.3085210
 108.0863030  20.0221210  22.3088850 107.5148460  21.0887770  21.3991820
 116.5665120  25.5928850  21.7697520 116.4973400  24.6518790  21.6086650
 117.3284980  25.6830260  22.3420090 108.7571790  16.1983370  24.0954140
 108.5774630  15.3009120  24.3756900 108.3551870  16.7455240  24.7701090
 117.5970290  18.3999230  21.9966450 117.9735110  17.5271110  21.8840120
 117.4989800  18.7357930  21.1056890 111.7275300  16.7724860  17.4583890
 111.8342050  17.6728590  17.7652650 110.8167660  16.7242830  17.1678540
 121.3794410  15.8949670  18.9294790 122.2004030  15.4046240  18.9720270
 121.4128490  16.4847330  19.6826630 109.3758460  18.6943870  22.7036480
 110.0568570  18.9582240  23.3223880 109.0606510  17.8544740  23.0374490
 113.5683030  19.7411230  21.7909070 114.0761250  20.2392200  22.4314090
 114.0996270  18.9646430  21.6148430 125.6693960  17.9116420  25.4938420
 124.9646130  18.2998130  24.9753530 125.9351880  18.6066710  26.0959350
 111.8519130  14.3809790  26.0572490 111.8537570  14.8982180  25.2518390
 111.0223440  13.9039970  26.0342420 118.2390220  24.4929100  17.5562390
 117.6207490  24.9578550  16.9925110 118.7513470  25.1856580  17.9731900
 113.1021980  24.0204970  24.2345990 112.7691360  24.6473890  24.8767060
 113.2788660  24.5466850  23.4547660 121.6155890  17.8350050  21.7022330
 120.9111460  18.1234940  22.2825440 121.9768050  18.6450160  21.3421890
 111.5334460  16.0919750  24.0642940 111.8751270  16.9361800  23.7696810
 110.5950270  16.2403490  24.1808280 112.3141080  25.9885770  26.0495170
 112.9315080  26.6636850  25.7679620 111.4534200  26.3973750  25.9582670
 107.6073420  25.1785630  14.9302020 107.2301400  25.6672730  14.1986920
 107.8646490  25.8510910  15.5608550 123.2318670  27.4525180  23.9649810
 122.5482190  28.1224290  23.9566480 123.7712960  27.6505830  23.1994670
 124.6842810  17.2804840  22.0931540 123.7367720  17.3143820  22.2246970
 125.0092800  18.0943790  22.4780900 115.2162350  13.5802020  20.3887530
 115.5237330  13.0248910  19.6723030 114.2863050  13.7146480  20.2060520
 122.0622830  26.0185530  17.7685160 121.9519160  25.0759860  17.8934580
 122.0591080  26.3801170  18.6547920 120.1662850  24.1999150  24.0077600
 120.5831640  23.9859260  23.1731060 120.8902670  24.4571940  24.5786220
 117.6043110  21.6450850  17.1247650 116.6772390  21.5788230  17.3536120
 117.7567930  22.5830980  17.0102890 117.5912190  17.9167850  14.1214810
 116.6515860  18.0781810  14.2067270 117.9095450  18.6353530  13.5750800
 124.1124950  22.5986370  24.0993840 123.2843580  22.6679460  23.6243970
 124.7075430  23.1840680  23.6309670 121.6340400  23.2071150  17.6282900
 121.0152820  22.8690700  16.9809200 121.6164850  22.5630910  18.3362090
 121.0766960  19.3855690  25.0448710 120.6638140  20.2109400  25.2988700
 120.3442910  18.8000730  24.8525070 113.2099750  22.1715590  19.9067380
 112.8056750  21.4592840  19.4113280 113.2962870  21.8268830  20.7955420
 113.6781450  25.8583150  22.0706590 113.3809740  25.2528620  21.3914370
 114.6281270  25.8960460  21.9595950 111.9228370  18.9458800  23.6866420
 112.4742960  19.0554140  22.9119670 112.4371880  19.3196400  24.4021650
 121.7667060  29.4315020  25.7329690 121.2897620  30.2387210  25.5402300
 121.0828850  28.7793350  25.8855900 112.7699880  25.5964840  28.7214390
 111.8728410  25.8204810  28.9687790 112.7952750  25.7199780  27.7725790
 119.8105100  22.4457960  14.6355650 120.2498380  21.6080390  14.4893470
 120.5233520  23.0787360  14.7219790 111.5971100  22.4678160  27.2971760
 111.4578870  23.3400960  27.6659160 110.7152460  22.1250970  27.1519700
 117.9200480  27.3854030  18.6036890 118.3596390  28.1278360  18.1892280
 117.8587370  27.6280600  19.5275850 113.3951450  28.4099860  29.5056910
 113.3666880  28.8142810  28.6385340 113.2316420  27.4810220  29.3428510
 123.3922240  13.7000770  12.9496690 123.0794900  13.7927600  13.8495760
 124.1534710  14.2781800  12.8994120 109.9104380  21.0660570  17.4074030
 109.7901980  21.7922660  16.7955300 109.6005270  20.2963480  16.9301940
 107.5489750  24.2375710  23.2142670 107.6270170  24.3724480  22.2698390
 108.1631430  23.5291600  23.4070790 108.7937380  25.9375900  19.6248850
 108.3865460  26.0790490  18.7702450 109.6850390  25.6536060  19.4220060
 124.7499520  26.3839810  27.9621090 124.8762580  26.1451690  27.0438270
 124.7920900  25.5524350  28.4343170 120.5870660  30.3723150  15.9599900
 120.4271800  30.0826090  16.8581730 120.4217370  29.5963280  15.4245130
 113.0659040  30.1521680  17.7371520 112.8901520  29.2357220  17.5239320
 112.2114780  30.5108970  17.9769320 120.2896790  27.8810710  14.5197900
 119.5961950  27.8788000  13.8600180 121.0319650  27.4570030  14.0892070
 124.6023530  18.4372270  28.9270830 123.9867800  18.9451940  28.3986290
 124.2819950  17.5370600  28.8696770 107.6049270  25.2789880  25.7537130
 107.7680310  24.8095240  24.9356500 108.0701720  24.7713440  26.4185970
 112.3768040  14.4095640  20.7897700 111.9336190  15.1905180  20.4582220
 112.9353030  14.7325530  21.4968640 116.6637850  17.2764160  26.3933020
 116.2017220  17.4847180  27.2052960 116.2615960  16.4623510  26.0903690
 121.6642360  18.4973110  27.5229680 120.8135950  18.1978860  27.8438750
 121.5044150  18.7415120  26.6113500 118.7592070  19.9974860  29.6228470
 119.0845480  19.1638610  29.2830700 119.5472400  20.5203380  29.7706800
 115.4926860  14.0306340  15.6703530 114.8681040  14.0266210  16.3956840
 115.4056980  13.1637300  15.2739500 114.4143940  14.9542970  22.6487300
 114.7116270  15.8605800  22.5679320 114.9629500  14.4661750  22.0346870
 112.1682260  19.5329210  18.5178950 111.9423180  19.3166380  19.4225570
 111.3874790  19.9657670  18.1724920 119.3980020  19.5392580  17.1169600
 118.7988910  20.2628380  16.9333220 119.9459630  19.4769360  16.3346050
 114.6081470  20.4314790  29.1839220 114.5125070  19.4909520  29.0339620
 115.4513450  20.6529860  28.7887290 118.0044890  18.1756120  19.1472880
 118.3974460  18.4928320  18.3341570 118.3661740  17.2968000  19.2617400
 109.7392010  16.8428460  27.3373000 109.3455400  17.6903670  27.5445780
 109.0510410  16.2054830  27.5281640 116.3137060  16.9263430  30.4069740
 115.6235380  16.7335630  31.0415830 117.0569360  17.2098070  30.9394040
 107.0409060  14.7656920  21.3703080 106.7522110  15.3359780  22.0828060
 107.7854820  14.2861370  21.7334310 107.2279290  18.7077040  12.5805800
 107.1453960  19.6507800  12.7220790 106.8762350  18.5651950  11.7018150
 118.5900030  20.7661870  23.2423660 117.8581150  21.2748680  23.5913760
 118.1924370  19.9491850  22.9412440 115.0277420  17.4416070  21.6476150
 115.0313480  17.0006020  20.7980690 115.9228540  17.7633400  21.7547970
 110.8779800  17.3242560  20.6070360 110.5379850  17.8017790  21.3637410
 110.1157120  16.8707680  20.2471460 115.0897570  18.4428150  14.6382910
 115.2110390  18.4014630  15.5868730 114.7046080  19.3052300  14.4829640
 119.0525940  16.2195550  22.6546600 119.0698680  16.6704200  23.4988450
 118.8041520  15.3201190  22.8680040 114.1019070  20.7529290  14.0366210
 113.5335970  20.3047540  13.4102120 114.8108070  21.1122070  13.5031360
 122.4796690  13.6327730  28.4932980 122.8042460  12.9017390  29.0190960
 122.5153200  13.3141370  27.5913970 109.1788250  24.6541310  27.9132940
 108.7943040  24.0134980  28.5115900 109.4900440  25.3577430  28.4827670
 115.3285390  21.5017850  23.3941560 115.6955520  21.0276420  24.1402900
 115.1390450  22.3759420  23.7349900 108.1925880  16.2461540  19.5235030
 107.9072800  15.8817210  20.3613650 108.1304740  15.5142000  18.9098170
 113.1184760  20.5426490  25.7125770 112.8141830  21.4218470  25.9376130
 114.0731220  20.6026280  25.7483210 111.6466550  24.7487480  16.3092620
 110.8728810  24.2085100  16.1491340 112.3761180  24.2294090  15.9710380
 122.4054530  23.7452840  22.1019010 123.1253650  24.2408130  21.7115120
 122.2036350  23.0670730  21.4572880 117.8664470  15.1390800  16.2448400
 117.0529080  14.6403970  16.1693710 117.6726420  15.9789050  15.8284750
 117.7873330  23.8161900  27.9888010 117.7210640  22.8957570  27.7345600
 117.1578470  23.9137340  28.7032650 120.5812860  19.5110450  14.5410560
 121.4692480  19.8227680  14.3661900 120.5517950  18.6382700  14.1491140
 111.6903950  24.4167860  19.9471430 112.2082620  23.6136120  19.8928320
 111.2387970  24.3547000  20.7888260 116.5773450  25.6834140  15.2198730
 116.9189150  26.4276370  14.7242050 115.7486160  25.9965260  15.5823560
 109.1748490  21.3829230  26.8597130 108.8163430  22.0483080  27.4470470
 108.8803050  20.5512780  27.2309750 112.3761610  21.8413470  29.7436680
 112.0761750  21.9870650  28.8464500 113.1472850  21.2818760  29.6510070
 117.7190060  26.6382470  27.7391810 117.7334600  25.7063430  27.5210720
 117.0115160  26.7242230  28.3781580 122.8527130  20.8222290  14.0090420
 122.7690850  21.2536510  13.1586860 123.5721320  21.2820640  14.4417240
 123.9301270  23.2789810  27.0860390 123.2049460  23.8718590  26.8889780
 124.4576730  23.2713350  26.2873760 123.8814380  27.6764550  16.7372550
 123.2390540  27.0220170  17.0116270 123.4945040  28.0819640  15.9613220
 119.4600860  25.0049980  20.5844240 119.8124680  24.4078110  19.9245610
 118.5763190  24.6794210  20.7552490 115.5464140  25.7647670  17.9914650
 116.2335270  26.3116880  18.3722240 114.7596560  26.3088400  18.0264260
 107.6856540  21.3820490  13.4831730 108.5551390  21.6645290  13.7667650
 107.1946860  22.1956360  13.3680540 114.8491350  22.7693700  17.6040010
 115.3054130  23.5798950  17.8300200 114.4979560  22.4516840  18.4358500
 110.7503130  13.1131350  18.0762530 110.6217760  13.1049250  19.0247450
 109.9265150  13.4514440  17.7253540 118.4256040  26.2832390  23.5509760
 119.0678270  25.5825550  23.6641930 118.9505390  27.0630830  23.3706650
 122.2711760  26.5681010  13.2748900 122.0449340  25.8511450  13.8673540
 121.8807960  26.3193450  12.4370650 120.1993660  27.0827290  26.7545820
 120.5349900  27.6693980  27.4323740 119.2794000  26.9520000  26.9843610
 108.0527790  30.5947870  14.0493360 108.4125430  31.1937210  13.3950630
 107.9120130  31.1407760  14.8228390 107.7497060  14.8722470  27.5369230
 107.0355580  15.0719390  28.1421840 108.1692100  14.0962040  27.9084030
 121.8528010  24.4852950  14.9363060 121.5649710  24.9465640  15.7240940
 122.6480180  24.0250720  15.2047280 108.0369650  28.8602730  28.5235760
 108.1460770  27.9197470  28.3831150 107.3850210  29.1257480  27.8749490
 116.0282240  27.1318620  29.9233880 115.7079110  26.4127860  30.4679570
 115.3540600  27.8073690  29.9969940 114.0696410  27.9779070  14.8667030
 114.0606510  28.7108760  14.2511540 113.1494770  27.7310650  14.9593990
 109.6703050  23.1993960  15.6113790 109.0631000  23.9392860  15.6209090
 110.1452400  23.2893320  14.7851990 119.2435840  17.3644780  25.2870680
 119.6116660  16.5439990  25.6150250 118.3834040  17.4246670  25.7026330
 122.6097870  16.3201720  16.0958240 121.9811030  16.4247390  15.3816470
 122.1149790  16.5398500  16.8852120 117.0556010  28.0407310  13.5292220
 117.1567990  27.8371300  12.5994200 116.1557750  27.7865590  13.7340000
 114.5781900  18.5987670  17.5116120 113.8698050  19.0674010  17.9529730
 114.8626380  17.9409680  18.1461310 116.2037830  20.0184370  25.5108650
 116.7023080  20.4930190  26.1760500 116.3460780  19.0947890  25.7178680
 118.6097330  15.3238330  18.9511910 118.4865110  15.3424460  18.0021420
 119.5581890  15.3717270  19.0710310 115.6974120  30.5593630  18.2239890
 115.9515620  30.5215020  17.3019260 114.7486600  30.4326960  18.2168140
 112.7816920  16.9072750  14.8866830 113.6307450  17.3442900  14.8207020
 112.4148190  17.2193010  15.7138890 123.4104690  16.2352330  26.3537040
 122.9078290  16.9757730  26.6930850 124.2261350  16.6236330  26.0373830
 121.7026700  21.4785510  19.7998400 120.7616840  21.4935740  19.9746090
 122.0170770  20.6921470  20.2458700 111.6808340  23.1605110  13.3602360
 112.4471610  23.0486470  13.9227790 111.7583030  22.4643080  12.7079130
 110.3755100  20.5930180  14.0435250 110.4558690  19.6457690  14.1552650
 111.2674850  20.9237060  14.1495910 123.7052280  28.6494360  21.4752660
 123.8299700  29.4725530  21.9476470 124.5717840  28.4385090  21.1276810
 111.1769810  30.7425570  21.1469790 111.9132290  30.1941030  21.4178360
 111.5610730  31.6081580  21.0075780 108.0615290  26.8099140  17.0211300
 107.1355070  27.0520280  17.0116710 108.5271720  27.6373400  16.8996050
 110.1828090  29.9271640  30.3355370 110.9840820  30.2483690  30.7490770
 109.6679910  29.5667220  31.0575280 114.2872120  29.9155880  12.9695360
 115.0800730  30.2044710  12.5177150 113.7676470  29.4848050  12.2907840
 119.0192720  26.0351510  30.2830780 118.4130880  26.0583110  29.5426530
 118.7146830  25.3034550  30.8198030 120.4493090  29.7631800  28.8940190
 121.4014840  29.6789820  28.8440430 120.3021310  30.4273510  29.5673980
 123.3402290  29.1426010  14.3932100 123.0543800  28.7291150  13.5786280
 123.1421840  30.0713720  14.2732620 107.9025900  22.4145100  29.2791420
 108.4064920  21.8352380  29.8507650 107.1633320  22.6985330  29.8167790
 114.8049520  25.1359290  12.8337710 114.7000160  24.5211640  13.5599090
 114.6373740  24.6125180  12.0500720 114.9563840  23.8216090  28.8126940
 114.1909510  24.3901090  28.7281610 115.1379800  23.5292300  27.9195170
 118.0452250  24.1979320  13.4379700 117.4962350  24.6448620  14.0822440
 118.6671510  23.6928570  13.9617370 122.0987190  25.5521420  29.3701960
 122.8396660  25.8897180  28.8669420 121.3359870  25.7213480  28.8171730
 109.9348980  20.5574690  30.1741490 109.9754320  20.2588560  31.0826720
 110.7894480  20.9582300  30.0149010 113.7127370  23.1570240  15.3345000
 114.1343790  22.9910110  16.1776390 113.8378210  22.3470470  14.8400140
 111.8754790  19.1366790  28.1415980 111.3451250  18.6457740  27.5139320
 112.5442860  19.5650990  27.6073910 116.2255010  22.1807850  12.5822100
 116.7460670  21.4656870  12.2163250 116.8723410  22.8193720  12.8822610
 120.7732850  23.6036250  27.9057170 121.1873870  23.7581330  28.7547590
 119.8383850  23.7291470  28.0682950 121.2455020  20.9432410  29.9096320
 121.8275790  20.1884730  29.8216800 121.4216790  21.4739850  29.1327800
 112.3627090  16.1029160  28.2213270 112.2683960  15.4849910  27.4964140
 111.7824480  16.8295450  27.9943180 115.1288530  14.6602400  25.2540660
 114.6805830  14.6826660  24.4086210 114.4953730  14.2621420  25.8510960
 115.5348080  23.5556730  25.8753100 115.9536190  24.3989460  25.7029340
 114.6156710  23.6928770  25.6459880 117.8711980  21.2872910  27.2590940
 117.9908190  20.6914050  27.9985780 118.7305980  21.3242600  26.8392240
 120.2099880  21.8410100  25.8353450 119.6835100  22.3652720  25.2318590
 120.5531220  22.4737490  26.4663180 112.6086270  19.2303470  12.2803160
 112.4075330  18.3670830  12.6416500 112.4378320  19.1436830  11.3424760
 114.6380750  17.8294260  28.5166760 115.2280440  17.5210110  29.2044580
 113.8200990  17.3574010  28.6726660 119.4574180  17.4460070  28.7499780
 118.7689700  16.7841610  28.6849770 120.1780200  16.9998340  29.1948240
 120.0874580  14.0411700  14.8090040 120.3676870  13.1979600  15.1649460
 119.3140310  14.2734810  15.3228790 111.4069070  16.3304090  12.2681040
 111.7094970  16.3371520  11.3600190 112.1463660  15.9801950  12.7648700
 114.6254000  15.2738710  13.2537240 114.2776000  14.5962700  12.6739690
 114.8266770  14.8128220  14.0680630 116.7903040  30.2619460  14.8723840
 117.6853830  30.6004430  14.8942600 116.8220670  29.5398870  14.2448120
 110.4299200  25.6346510  13.1010840 110.8674070  26.1776180  13.7568420
 110.9146930  24.8093460  13.1107180 107.6445000  28.4235540  20.5531100
 107.9748010  27.5556600  20.3209740 108.0736000  28.6294060  21.3836060
 112.2406920  26.7544550  18.2133070 111.9402460  26.6309520  19.1136980
 112.1344410  25.8953140  17.8048800 108.1335210  29.2906130  23.2912730
 107.6966200  29.4706930  24.1236880 108.7012890  30.0480750  23.1494450
 123.7697390  28.7923130  27.5790040 123.1699380  28.8515690  26.8353960
 123.8991290  27.8528110  27.7086890 125.0098840  26.5340950  12.9159750
 124.1791800  26.6017600  13.3866980 125.1870670  27.4245070  12.6126610
 124.4655300  23.2788430  15.4193950 125.2274210  23.8485080  15.5253640
 124.4809670  22.7115630  16.1902260 107.9659640  21.8026360  19.6501610
 107.3108480  21.5338000  19.0061310 108.8037590  21.6930840  19.2003590
 125.4715270  24.1338530  20.2635880 125.8424100  23.3505850  19.8571850
 126.1117200  24.8227630  20.0853180 122.4549030  25.5175110  25.6766200
 121.6408870  25.9472270  25.9391990 122.8623230  26.1293520  25.0635250
 124.5174470  23.5722800  12.5766470 124.7923310  24.4801680  12.4485690
 124.3285210  23.5085330  13.5128460 120.9150080  16.5967650  13.8720100
 121.3334960  16.4098630  13.0316760 120.6086140  15.7446700  14.1823030
 124.4139810  21.5091790  17.5695900 124.0383410  20.7419720  17.1377190
 123.6842930  21.8914490  18.0570830 109.0035570  22.1878930  24.1904950
 109.3708610  22.1006330  25.0700970 108.4346390  21.4245480  24.0911810
 123.8039430  20.6563310  27.2035420 123.5725520  20.4276060  26.3033370
 124.0643980  21.5762860  27.1580310 108.5551570  19.0988020  28.0963370
 107.6607620  19.0654780  28.4357080 109.0949120  19.2974810  28.8614620
 122.2427500  15.8819740  29.9815120 123.1197680  15.8903140  30.3649120
 122.2548340  15.1450580  29.3707470 107.1797720  19.0125290  15.5926940
 106.2761800  19.2755490  15.4178600 107.6638340  19.2836460  14.8126900
 123.6890770  19.7349280  20.8703140 124.2128250  19.2411930  20.2393310
 124.2750190  19.8699640  21.6150710 123.8680490  19.8189150  24.3922690
 122.9183200  19.7852690  24.5067680 124.0493500  20.7289260  24.1572460
 109.7224930  18.0690830  13.5021320 110.4316630  17.6474050  13.0168600
 109.0064870  18.1366060  12.8704670 109.3699090  14.1230160  12.5423970
 110.0927220  14.6639100  12.8605190 109.6423610  13.8493580  11.6665510
 123.1790740  18.9922630  16.8095550 123.6749860  18.7593500  17.5944430
 122.9806810  18.1534470  16.3933190 109.0591280  13.3736350  22.4446590
 109.7067470  12.8233730  22.0041750 109.4793120  13.6279500  23.2662400
 124.6077900  17.6283580  19.3433230 124.4977180  17.4739620  20.2815500
 125.3685490  17.1004520  19.1008640 122.9543620  13.5677710  25.8016230
 123.5915840  14.1811850  26.1675420 123.1018510  13.6038370  24.8565460
 125.4968170  15.4591500  12.5839370 126.4217480  15.3272680  12.3757660
 125.4743960  15.5384320  13.5375820 125.5706660  16.2302160  15.2096080
 124.7758160  16.1647280  15.7388990 125.7749940  17.1652800  15.1981430
 108.8123280  13.5292020  25.1871910 108.4638100  13.9855840  25.9530090
 108.4810980  12.6349150  25.2694340 110.4187650  26.7011620  29.3525100
 110.3757280  26.3304530  30.2339560 110.5498660  27.6389190  29.4926920
 114.1193680  28.2571210  24.9534820 113.8785040  28.5245770  24.0665340
 115.0596320  28.4276940  25.0085680 116.3248100  14.7203900  28.7091330
 116.2636990  15.3125730  29.4586740 117.2648480  14.6129860  28.5641590
 118.9622660  14.3773960  28.3483620 119.5763070  14.6953250  27.6864700
 119.5072220  13.8922550  28.9679480 109.4843920  13.0568220  28.4622680
 110.0326910  12.8756270  27.6988790 109.5499230  12.2662330  28.9978990
 110.2575680  29.6473870  26.4722880 109.6636000  29.5158570  27.2112920
 110.2499520  28.8112010  26.0064980 119.7030700  12.9406100  24.6752910
 118.8290540  13.2741210  24.4725840 119.5941450  12.4679280  25.5004780
 120.6102680  15.1476970  26.0594630 120.2816040  14.3328730  25.6796360
 121.5584980  15.1046780  25.9360320 109.8887910  27.0132250  25.4230920
 109.1621970  26.3937540  25.3556870 109.9497060  27.4072860  24.5529000
 113.4933010  29.2277250  22.2080330 114.0098030  28.6164610  21.6828590
 114.1430390  29.7306030  22.6991340 117.4505520  13.8575940  23.6145820
 116.6677310  14.3321440  23.8942580 117.1568450  12.9530770  23.5059000
 122.0026590  14.5599040  21.6594910 122.4434680  14.5044140  20.8116510
 121.7334180  15.4757050  21.7305090 123.8665160  14.1914280  19.6703730
 123.8053560  13.2475500  19.5234750 124.6457190  14.2994370  20.2157190
 108.1717910  30.3306640  18.6327680 108.0039950  29.6977320  19.3309570
 107.3052420  30.5366040  18.2821870 108.7945930  14.1623420  16.1359540
 109.5525290  14.2752300  15.5623570 108.3323100  14.9992620  16.0902970
 115.3359740  16.2762690  19.1261850 114.5234250  15.9019580  18.7857730
 115.8401380  15.5207770  19.4283040 119.8384720  12.9405140  20.3644920
 120.4414090  13.5125350  20.8393440 119.0977710  13.5044580  20.1418820
 122.9819320  13.3426700  15.6385200 123.1769950  14.2410150  15.9052630
 122.1949190  13.1113780  16.1318150 109.7780610  29.0239870  16.0777820
 109.2528230  29.4047900  15.3739780 109.7025190  29.6490640  16.7987530
 111.1671080  14.6887470  14.6761510 111.6963840  13.9017270  14.5469460
 111.7999400  15.3678660  14.9097040 113.3608920  14.4262610  17.7306900
 112.7311660  13.7249920  17.8977030 112.8214060  15.1866740  17.5140060
 124.5345930  30.5827410  17.3991760 124.7098120  29.8965150  16.7552680
 123.8367500  31.1074460  17.0068430 113.4864480  13.7046590  30.1659390
 113.2048750  14.2080190  29.4020210 113.8684180  12.9068340  29.8001520
 112.3773580  30.9722250  14.9527070 113.1092400  30.6881530  14.4050960
 112.6367250  30.7335530  15.8426450 111.5388370  27.0886980  14.9573400
 110.9097250  27.5572080  15.5059230 111.6536200  26.2436200  15.3919590
 120.0879940  13.1200170  30.7439860 119.9745390  13.4394780  31.6391380
 120.9049680  13.5212680  30.4477140 117.1256130  22.9171660   2.9883870
 116.3498230  22.4372100   3.2782440 117.7769060  22.2377310   2.8140030
 111.1421960  23.2291470   3.8659630 110.3106840  22.9740180   4.2656140
 111.7502940  23.3002240   4.6017550 121.1463560  27.3231850   1.7683000
 120.6845090  26.5519090   2.0970170 121.9589110  27.3497920   2.2735450
 111.1223220  27.2631560   4.0617650 111.4251260  26.3729300   3.8827870
 111.8666810  27.8201780   3.8339900 107.5146920  20.7899010   3.5341720
 108.0863030  20.0221210   3.5345360 107.5148460  21.0887770   2.6248330
 116.5665120  25.5928850   2.9954030 116.4973400  24.6518790   2.8343160
 117.3284980  25.6830260   3.5676600 108.7571790  16.1983370   5.3210650
 108.5774630  15.3009120   5.6013410 108.3551870  16.7455240   5.9957600
 117.5970290  18.3999230   3.2222960 117.9735110  17.5271110   3.1096630
 117.4989800  18.7357930   2.3313400 109.3758460  18.6943870   3.9292990
 110.0568570  18.9582240   4.5480390 109.0606510  17.8544740   4.2631000
 113.5683030  19.7411230   3.0165580 114.0761250  20.2392200   3.6570600
 114.0996270  18.9646430   2.8404940 125.6693960  17.9116420   6.7194930
 124.9646130  18.2998130   6.2010040 125.9351880  18.6066710   7.3215860
 111.8519130  14.3809790   7.2829000 111.8537570  14.8982180   6.4774900
 111.0223440  13.9039970   7.2598930 113.1021980  24.0204970   5.4602500
 112.7691360  24.6473890   6.1023570 113.2788660  24.5466850   4.6804170
 121.6155890  17.8350050   2.9278840 120.9111460  18.1234940   3.5081950
 121.9768050  18.6450160   2.5678400 111.5334460  16.0919750   5.2899450
 111.8751270  16.9361800   4.9953320 110.5950270  16.2403490   5.4064790
 112.3141080  25.9885770   7.2751680 112.9315080  26.6636850   6.9936130
 111.4534200  26.3973750   7.1839180 123.2318670  27.4525180   5.1906320
 122.5482190  28.1224290   5.1822990 123.7712960  27.6505830   4.4251180
 124.6842810  17.2804840   3.3188050 123.7367720  17.3143820   3.4503480
 125.0092800  18.0943790   3.7037410 120.7677410  29.2969310   3.9051500
 120.7804570  28.8931600   3.0373760 120.2152630  30.0716600   3.8012930
 120.1662850  24.1999150   5.2334110 120.5831640  23.9859260   4.3987570
 120.8902670  24.4571940   5.8042730 124.1124950  22.5986370   5.3250350
 123.2843580  22.6679460   4.8500480 124.7075430  23.1840680   4.8566180
 121.0766960  19.3855690   6.2705220 120.6638140  20.2109400   6.5245210
 120.3442910  18.8000730   6.0781580 113.6781450  25.8583150   3.2963100
 113.3809740  25.2528620   2.6170880 114.6281270  25.8960460   3.1852460
 111.9228370  18.9458800   4.9122930 112.4742960  19.0554140   4.1376180
 112.4371880  19.3196400   5.6278160 121.7667060  29.4315020   6.9586200
 121.2897620  30.2387210   6.7658810 121.0828850  28.7793350   7.1112410
 112.7699880  25.5964840   9.9470900 111.8728410  25.8204810  10.1944300
 112.7952750  25.7199780   8.9982300 111.5971100  22.4678160   8.5228270
 111.4578870  23.3400960   8.8915670 110.7152460  22.1250970   8.3776210
 113.3951450  28.4099860  10.7313420 113.3666880  28.8142810   9.8641850
 113.2316420  27.4810220  10.5685020 125.3466270  29.1926960  12.0277590
 125.8225990  29.6709850  12.7066670 125.9673430  29.1244450  11.3023090
 107.5489750  24.2375710   4.4399180 107.6270170  24.3724480   3.4954900
 108.1631430  23.5291600   4.6327300 124.7499520  26.3839810   9.1877600
 124.8762580  26.1451690   8.2694780 124.7920900  25.5524350   9.6599680
 118.6116260  30.0867810   7.7572410 119.1260930  29.9975820   8.5594840
 117.7685340  30.4327510   8.0500320 124.6023530  18.4372270  10.1527340
 123.9867800  18.9451940   9.6242800 124.2819950  17.5370600  10.0953280
 107.6049270  25.2789880   6.9793640 107.7680310  24.8095240   6.1613010
 108.0701720  24.7713440   7.6442480 112.3768040  14.4095640   2.0154210
 111.9336190  15.1905180   1.6838730 112.9353030  14.7325530   2.7225150
 116.6637850  17.2764160   7.6189530 116.2017220  17.4847180   8.4309470
 116.2615960  16.4623510   7.3160200 121.6642360  18.4973110   8.7486190
 120.8135950  18.1978860   9.0695260 121.5044150  18.7415120   7.8370010
 118.7592070  19.9974860  10.8484980 119.0845480  19.1638610  10.5087210
 119.5472400  20.5203380  10.9963310 114.4143940  14.9542970   3.8743810
 114.7116270  15.8605800   3.7935830 114.9629500  14.4661750   3.2603380
 114.6081470  20.4314790  10.4095730 114.5125070  19.4909520  10.2596130
 115.4513450  20.6529860  10.0143800 109.7392010  16.8428460   8.5629510
 109.3455400  17.6903670   8.7702290 109.0510410  16.2054830   8.7538150
 116.3137060  16.9263430  11.6326250 115.6235380  16.7335630  12.2672340
 117.0569360  17.2098070  12.1650550 107.0409060  14.7656920   2.5959590
 106.7522110  15.3359780   3.3084570 107.7854820  14.2861370   2.9590820
 118.5900030  20.7661870   4.4680170 117.8581150  21.2748680   4.8170270
 118.1924370  19.9491850   4.1668950 115.0277420  17.4416070   2.8732660
 115.0313480  17.0006020   2.0237200 115.9228540  17.7633400   2.9804480
 110.8779800  17.3242560   1.8326870 110.5379850  17.8017790   2.5893920
 110.1157120  16.8707680   1.4727970 119.0525940  16.2195550   3.8803110
 119.0698680  16.6704200   4.7244960 118.8041520  15.3201190   4.0936550
 122.4796690  13.6327730   9.7189490 122.8042460  12.9017390  10.2447470
 122.5153200  13.3141370   8.8170480 109.1788250  24.6541310   9.1389450
 108.7943040  24.0134980   9.7372410 109.4900440  25.3577430   9.7084180
 115.3285390  21.5017850   4.6198070 115.6955520  21.0276420   5.3659410
 115.1390450  22.3759420   4.9606410 113.1184760  20.5426490   6.9382280
 112.8141830  21.4218470   7.1632640 114.0731220  20.6026280   6.9739720
 122.4054530  23.7452840   3.3275520 123.1253650  24.2408130   2.9371630
 122.2036350  23.0670730   2.6829390 117.7873330  23.8161900   9.2144520
 117.7210640  22.8957570   8.9602110 117.1578470  23.9137340   9.9289160
 109.1748490  21.3829230   8.0853640 108.8163430  22.0483080   8.6726980
 108.8803050  20.5512780   8.4566260 112.3761610  21.8413470  10.9693190
 112.0761750  21.9870650  10.0721010 113.1472850  21.2818760  10.8766580
 117.7190060  26.6382470   8.9648320 117.7334600  25.7063430   8.7467230
 117.0115160  26.7242230   9.6038090 123.9301270  23.2789810   8.3116900
 123.2049460  23.8718590   8.1146290 124.4576730  23.2713350   7.5130270
 117.1523960  28.2800040   6.0588820 117.7966180  28.4859420   6.7362240
 117.5153400  27.5188440   5.6059670 118.4256040  26.2832390   4.7766270
 119.0678270  25.5825550   4.8898440 118.9505390  27.0630830   4.5963160
 120.1993660  27.0827290   7.9802330 120.5349900  27.6693980   8.6580250
 119.2794000  26.9520000   8.2100120 107.7497060  14.8722470   8.7625740
 107.0355580  15.0719390   9.3678350 108.1692100  14.0962040   9.1340540
 108.0369650  28.8602730   9.7492270 108.1460770  27.9197470   9.6087660
 107.3850210  29.1257480   9.1006000 116.0282240  27.1318620  11.1490390
 115.7079110  26.4127860  11.6936080 115.3540600  27.8073690  11.2226450
 119.2435840  17.3644780   6.5127190 119.6116660  16.5439990   6.8406760
 118.3834040  17.4246670   6.9282840 116.2037830  20.0184370   6.7365160
 116.7023080  20.4930190   7.4017010 116.3460780  19.0947890   6.9435190
 123.4104690  16.2352330   7.5793550 122.9078290  16.9757730   7.9187360
 124.2261350  16.6236330   7.2630340 123.7052280  28.6494360   2.7009170
 123.8299700  29.4725530   3.1732980 124.5717840  28.4385090   2.3533320
 111.1769810  30.7425570   2.3726300 111.9132290  30.1941030   2.6434870
 111.5610730  31.6081580   2.2332290 110.1828090  29.9271640  11.5611880
 110.9840820  30.2483690  11.9747280 109.6679910  29.5667220  12.2831790
 119.0192720  26.0351510  11.5087290 118.4130880  26.0583110  10.7683040
 118.7146830  25.3034550  12.0454540 120.4493090  29.7631800  10.1196700
 121.4014840  29.6789820  10.0696940 120.3021310  30.4273510  10.7930490
 107.9025900  22.4145100  10.5047930 108.4064920  21.8352380  11.0764160
 107.1633320  22.6985330  11.0424300 114.9563840  23.8216090  10.0383450
 114.1909510  24.3901090   9.9538120 115.1379800  23.5292300   9.1451680
 122.0987190  25.5521420  10.5958470 122.8396660  25.8897180  10.0925930
 121.3359870  25.7213480  10.0428240 109.9348980  20.5574690  11.3998000
 109.9754320  20.2588560  12.3083230 110.7894480  20.9582300  11.2405520
 111.8754790  19.1366790   9.3672490 111.3451250  18.6457740   8.7395830
 112.5442860  19.5650990   8.8330420 120.7732850  23.6036250   9.1313680
 121.1873870  23.7581330   9.9804100 119.8383850  23.7291470   9.2939460
 121.2455020  20.9432410  11.1352830 121.8275790  20.1884730  11.0473310
 121.4216790  21.4739850  10.3584310 112.3627090  16.1029160   9.4469780
 112.2683960  15.4849910   8.7220650 111.7824480  16.8295450   9.2199690
 115.1288530  14.6602400   6.4797170 114.6805830  14.6826660   5.6342720
 114.4953730  14.2621420   7.0767470 115.5348080  23.5556730   7.1009610
 115.9536190  24.3989460   6.9285850 114.6156710  23.6928770   6.8716390
 117.8711980  21.2872910   8.4847450 117.9908190  20.6914050   9.2242290
 118.7305980  21.3242600   8.0648750 120.2099880  21.8410100   7.0609960
 119.6835100  22.3652720   6.4575100 120.5531220  22.4737490   7.6919690
 113.3855500  29.8609740   8.2167340 112.8476590  30.5855800   7.8976040
 113.6389460  29.3840080   7.4264680 114.6380750  17.8294260   9.7423270
 115.2280440  17.5210110  10.4301090 113.8200990  17.3574010   9.8983170
 119.4574180  17.4460070   9.9756290 118.7689700  16.7841610   9.9106280
 120.1780200  16.9998340  10.4204750 116.2417710  31.0960950   8.4753990
 116.1676410  31.9996090   8.7826360 115.3396550  30.7772850   8.4476060
 107.6445000  28.4235540   1.7787610 107.9748010  27.5556600   1.5466250
 108.0736000  28.6294060   2.6092570 108.1335210  29.2906130   4.5169240
 107.6966200  29.4706930   5.3493390 108.7012890  30.0480750   4.3750960
 123.7697390  28.7923130   8.8046550 123.1699380  28.8515690   8.0610470
 123.8991290  27.8528110   8.9343400 122.4549030  25.5175110   6.9022710
 121.6408870  25.9472270   7.1648500 122.8623230  26.1293520   6.2891760
 109.0035570  22.1878930   5.4161460 109.3708610  22.1006330   6.2957480
 108.4346390  21.4245480   5.3168320 123.8039430  20.6563310   8.4291930
 123.5725520  20.4276060   7.5289880 124.0643980  21.5762860   8.3836820
 108.5551570  19.0988020   9.3219880 107.6607620  19.0654780   9.6613590
 109.0949120  19.2974810  10.0871130 122.2427500  15.8819740  11.2071630
 123.1197680  15.8903140  11.5905630 122.2548340  15.1450580  10.5963980
 123.6890770  19.7349280   2.0959650 124.2128250  19.2411930   1.4649820
 124.2750190  19.8699640   2.8407220 123.8680490  19.8189150   5.6179200
 122.9183200  19.7852690   5.7324190 124.0493500  20.7289260   5.3828970
 109.0591280  13.3736350   3.6703100 109.7067470  12.8233730   3.2298260
 109.4793120  13.6279500   4.4918910 122.9543620  13.5677710   7.0272740
 123.5915840  14.1811850   7.3931930 123.1018510  13.6038370   6.0821970
 108.8123280  13.5292020   6.4128420 108.4638100  13.9855840   7.1786600
 108.4810980  12.6349150   6.4950850 110.4187650  26.7011620  10.5781610
 110.3757280  26.3304530  11.4596070 110.5498660  27.6389190  10.7183430
 114.1193680  28.2571210   6.1791330 113.8785040  28.5245770   5.2921850
 115.0596320  28.4276940   6.2342190 116.3248100  14.7203900   9.9347840
 116.2636990  15.3125730  10.6843250 117.2648480  14.6129860   9.7898100
 118.9622660  14.3773960   9.5740130 119.5763070  14.6953250   8.9121210
 119.5072220  13.8922550  10.1935990 125.3797840  30.2765590   6.9801970
 124.8856120  30.6734460   6.2629100 124.7711130  29.6514800   7.3739250
 109.4843920  13.0568220   9.6879190 110.0326910  12.8756270   8.9245300
 109.5499230  12.2662330  10.2235500 110.2575680  29.6473870   7.6979390
 109.6636000  29.5158570   8.4369430 110.2499520  28.8112010   7.2321490
 119.7030700  12.9406100   5.9009420 118.8290540  13.2741210   5.6982350
 119.5941450  12.4679280   6.7261290 120.6102680  15.1476970   7.2851140
 120.2816040  14.3328730   6.9052870 121.5584980  15.1046780   7.1616830
 123.0637290  30.9189010   4.2588710 122.6040260  31.6704820   3.8846730
 122.4349750  30.1995480   4.2003510 109.8887910  27.0132250   6.6487430
 109.1621970  26.3937540   6.5813380 109.9497060  27.4072860   5.7785510
 113.4933010  29.2277250   3.4336840 114.0098030  28.6164610   2.9085100
 114.1430390  29.7306030   3.9247850 116.2328510  30.1185740   4.2605820
 116.5206320  29.8640040   3.3838830 116.7451730  29.5663100   4.8511390
 117.4505520  13.8575940   4.8402330 116.6677310  14.3321440   5.1199090
 117.1568450  12.9530770   4.7315510 122.0026590  14.5599040   2.8851420
 122.4434680  14.5044140   2.0373020 121.7334180  15.4757050   2.9561600
 116.3000870  31.0401840  11.6274020 117.2268180  30.8046110  11.6709980
 116.2851300  31.8673840  11.1460050 113.4864480  13.7046590  11.3915900
 113.2048750  14.2080190  10.6276720 113.8684180  12.9068340  11.0258030
 120.0879940  13.1200170  11.9696370 119.9745390  13.4394780  12.8647890
 120.9049680  13.5212680  11.6733650 122.8678430  30.2671700  11.4515060
 123.6603750  29.7720930  11.2441020 123.1611580  30.9461840  12.0590670
 118.9938090   2.3649150  57.4305070 118.9132140   1.4503760  57.1596780
 118.5802510   2.8616220  56.7244780 117.1256130   4.1428170  59.3114340
 116.3498230   3.6628610  59.6012910 117.7769060   3.4633820  59.1370500
 121.1463560   8.5488360  58.0913470 120.6845090   7.7775600  58.4200640
 121.9589110   8.5754430  58.5965920 107.5146920   2.0155520  59.8572190
 108.0863030   1.2477720  59.8575830 107.5148460   2.3144280  58.9478800
 117.3726870  10.8346370  57.7117460 116.7538310  11.2903870  57.1411900
 118.2278650  10.9897830  57.3107160 116.5665120   6.8185360  59.3184500
 116.4973400   5.8775300  59.1573630 117.3284980   6.9086770  59.8907070
 118.2390220   5.7185610  55.1049370 117.6207490   6.1835060  54.5412090
 118.7513470   6.4113090  55.5218880 107.6073420   6.4042140  52.4789000
 107.2301400   6.8929240  51.7473900 107.8646490   7.0767420  53.1095530
 120.7677410  10.5225820  60.2281970 120.7804570  10.1188110  59.3604230
 120.2152630  11.2973110  60.1243400 122.0622830   7.2442040  55.3172140
 121.9519160   6.3016370  55.4421560 122.0591080   7.6057680  56.2034900
 117.6043110   2.8707360  54.6734630 116.6772390   2.8044740  54.9023100
 117.7567930   3.8087490  54.5589870 121.6340400   4.4327660  55.1769880
 121.0152820   4.0947210  54.5296180 121.6164850   3.7887420  55.8849070
 113.2099750   3.3972100  57.4554360 112.8056750   2.6849350  56.9600260
 113.2962870   3.0525340  58.3442400 113.6781450   7.0839660  59.6193570
 113.3809740   6.4785130  58.9401350 114.6281270   7.1216970  59.5082930
 119.8105100   3.6714470  52.1842630 120.2498380   2.8336900  52.0380450
 120.5233520   4.3043870  52.2706770 117.9200480   8.6110540  56.1523870
 118.3596390   9.3534870  55.7379260 117.8587370   8.8537110  57.0762830
 109.9104380   2.2917080  54.9561010 109.7901980   3.0179170  54.3442280
 109.6005270   1.5219990  54.4788920 108.7937380   7.1632410  57.1735830
 108.3865460   7.3047000  56.3189430 109.6850390   6.8792570  56.9707040
 120.5870660  11.5979660  53.5086880 120.4271800  11.3082600  54.4068710
 120.4217370  10.8219790  52.9732110 113.0659040  11.3778190  55.2858500
 112.8901520  10.4613730  55.0726300 112.2114780  11.7365480  55.5256300
 120.2896790   9.1067220  52.0684880 119.5961950   9.1044510  51.4087160
 121.0319650   8.6826540  51.6379050 119.8546720  10.7329930  56.1433370
 120.3103670   9.9519310  56.4571990 120.1939240  11.4436750  56.6874550
 114.1019070   1.9785800  51.5853190 113.5335970   1.5304050  50.9589100
 114.8108070   2.3378580  51.0518340 111.6466550   5.9743990  53.8579600
 110.8728810   5.4341610  53.6978320 112.3761180   5.4550600  53.5197360
 122.4054530   4.9709350  59.6505990 123.1253650   5.4664640  59.2602100
 122.2036350   4.2927240  59.0059860 111.6903950   5.6424370  57.4958410
 112.2082620   4.8392630  57.4415300 111.2387970   5.5803510  58.3375240
 116.5773450   6.9090650  52.7685710 116.9189150   7.6532880  52.2729030
 115.7486160   7.2221770  53.1310540 122.8527130   2.0478800  51.5577400
 122.7690850   2.4793020  50.7073840 123.5721320   2.5077150  51.9904220
 123.8814380   8.9021060  54.2859530 123.2390540   8.2476680  54.5603250
 123.4945040   9.3076150  53.5100200 119.4600860   6.2306490  58.1331220
 119.8124680   5.6334620  57.4732590 118.5763190   5.9050720  58.3039470
 115.5464140   6.9904180  55.5401630 116.2335270   7.5373390  55.9209220
 114.7596560   7.5344910  55.5751240 107.6856540   2.6077000  51.0318710
 108.5551390   2.8901800  51.3154630 107.1946860   3.4212870  50.9167520
 114.8491350   3.9950210  55.1526990 115.3054130   4.8055460  55.3787180
 114.4979560   3.6773350  55.9845480 122.2711760   7.7937520  50.8235880
 122.0449340   7.0767960  51.4160520 121.8807960   7.5449960  49.9857630
 108.0527790  11.8204380  51.5980340 108.4125430  12.4193720  50.9437610
 107.9120130  12.3664270  52.3715370 121.8528010   5.7109460  52.4850040
 121.5649710   6.1722150  53.2727920 122.6480180   5.2507230  52.7534260
 114.0696410   9.2035580  52.4154010 114.0606510   9.9365270  51.7998520
 113.1494770   8.9567160  52.5080970 109.6703050   4.4250470  53.1600770
 109.0631000   5.1649370  53.1696070 110.1452400   4.5149830  52.3338970
 117.0556010   9.2663820  51.0779200 117.1567990   9.0627810  50.1481180
 116.1557750   9.0122100  51.2826980 115.6974120  11.7850140  55.7726870
 115.9515620  11.7471530  54.8506240 114.7486600  11.6583470  55.7655120
 121.7026700   2.7042020  57.3485380 120.7616840   2.7192250  57.5233070
 122.0170770   1.9177980  57.7945680 111.6808340   4.3861620  50.9089340
 112.4471610   4.2742980  51.4714770 111.7583030   3.6899590  50.2566110
 123.7052280   9.8750870  59.0239640 123.8299700  10.6982040  59.4963450
 124.5717840   9.6641600  58.6763790 111.1769810  11.9682080  58.6956770
 111.9132290  11.4197540  58.9665340 111.5610730  12.8338090  58.5562760
 108.0615290   8.0355650  54.5698280 107.1355070   8.2776790  54.5603690
 108.5271720   8.8629910  54.4483030 114.2872120  11.1412390  50.5182340
 115.0800730  11.4301220  50.0664130 113.7676470  10.7104560  49.8394820
 123.3402290  10.3682520  51.9419080 123.0543800   9.9547660  51.1273260
 123.1421840  11.2970230  51.8219600 114.8049520   6.3615800  50.3824690
 114.7000160   5.7468150  51.1086070 114.6373740   5.8381690  49.5987700
 118.0452250   5.4235830  50.9866680 117.4962350   5.8705130  51.6309420
 118.6671510   4.9185080  51.5104350 113.7127370   4.3826750  52.8831980
 114.1343790   4.2166620  53.7263370 113.8378210   3.5726980  52.3887120
 116.2255010   3.4064360  50.1309080 116.7460670   2.6913380  49.7650230
 116.8723410   4.0450230  50.4309590 116.7903040  11.4875970  52.4210820
 117.6853830  11.8260940  52.4429580 116.8220670  10.7655380  51.7935100
 110.4299200   6.8603020  50.6497820 110.8674070   7.4032690  51.3055400
 110.9146930   6.0349970  50.6594160 107.6445000   9.6492050  58.1018080
 107.9748010   8.7813110  57.8696720 108.0736000   9.8550570  58.9323040
 112.2406920   7.9801060  55.7620050 111.9402460   7.8566030  56.6623960
 112.1344410   7.1209650  55.3535780 125.0098840   7.7597460  50.4646730
 124.1791800   7.8274110  50.9353960 125.1870670   8.6501580  50.1613590
 124.4655300   4.5044940  52.9680930 125.2274210   5.0741590  53.0740620
 124.4809670   3.9372140  53.7389240 107.9659640   3.0282870  57.1988590
 107.3108480   2.7594510  56.5548290 108.8037590   2.9187350  56.7490570
 125.4715270   5.3595040  57.8122860 125.8424100   4.5762360  57.4058830
 126.1117200   6.0484140  57.6340160 124.5174470   4.7979310  50.1253450
 124.7923310   5.7058190  49.9972670 124.3285210   4.7341840  51.0615440
 124.4139810   2.7348300  55.1182880 124.0383410   1.9676230  54.6864170
 123.6842930   3.1171000  55.6057810 122.5125080  11.4950220  56.7521450
 123.1084150  11.1734790  56.0755870 122.7703230  11.0222040  57.5434720
 113.4933010  10.4533760  59.7567310 114.0098030   9.8421120  59.2315570
 114.1430390  10.9562540  60.2478320 108.1717910  11.5563150  56.1814660
 108.0039950  10.9233830  56.8796550 107.3052420  11.7622550  55.8308850
 109.7780610  10.2496380  53.6264800 109.2528230  10.6304410  52.9226760
 109.7025190  10.8747150  54.3474510 124.5345930  11.8083920  54.9478740
 124.7098120  11.1221660  54.3039660 123.8367500  12.3330970  54.5555410
 112.3773580  12.1978760  52.5014050 113.1092400  11.9138040  51.9537940
 112.6367250  11.9592040  53.3913430 111.5388370   8.3143490  52.5060380
 110.9097250   8.7828590  53.0546210 111.6536200   7.4692710  52.9406570
 118.9938090   2.3649150  38.6561580 118.9132140   1.4503760  38.3853290
 118.5802510   2.8616220  37.9501290 117.1256130   4.1428170  40.5370850
 116.3498230   3.6628610  40.8269420 117.7769060   3.4633820  40.3627010
 111.1421960   4.4547980  41.4146610 110.3106840   4.1996690  41.8143120
 111.7502940   4.5258750  42.1504530 121.1463560   8.5488360  39.3169980
 120.6845090   7.7775600  39.6457150 121.9589110   8.5754430  39.8222430
 111.1223220   8.4888070  41.6104630 111.4251260   7.5985810  41.4314850
 111.8666810   9.0458290  41.3826880 107.5146920   2.0155520  41.0828700
 108.0863030   1.2477720  41.0832340 107.5148460   2.3144280  40.1735310
 117.3726870  10.8346370  38.9373970 116.7538310  11.2903870  38.3668410
 118.2278650  10.9897830  38.5363670 116.5665120   6.8185360  40.5441010
 116.4973400   5.8775300  40.3830140 117.3284980   6.9086770  41.1163580
 118.2390220   5.7185610  36.3305880 117.6207490   6.1835060  35.7668600
 118.7513470   6.4113090  36.7475390 113.1021980   5.2461480  43.0089480
 112.7691360   5.8730400  43.6510550 113.2788660   5.7723360  42.2291150
 112.3141080   7.2142280  44.8238660 112.9315080   7.8893360  44.5423110
 111.4534200   7.6230260  44.7326160 107.6073420   6.4042140  33.7045510
 107.2301400   6.8929240  32.9730410 107.8646490   7.0767420  34.3352040
 123.2318670   8.6781690  42.7393300 122.5482190   9.3480800  42.7309970
 123.7712960   8.8762340  41.9738160 120.7677410  10.5225820  41.4538480
 120.7804570  10.1188110  40.5860740 120.2152630  11.2973110  41.3499910
 122.0622830   7.2442040  36.5428650 121.9519160   6.3016370  36.6678070
 122.0591080   7.6057680  37.4291410 120.1662850   5.4255660  42.7821090
 120.5831640   5.2115770  41.9474550 120.8902670   5.6828450  43.3529710
 117.6043110   2.8707360  35.8991140 116.6772390   2.8044740  36.1279610
 117.7567930   3.8087490  35.7846380 124.1124950   3.8242880  42.8737330
 123.2843580   3.8935970  42.3987460 124.7075430   4.4097190  42.4053160
 121.6340400   4.4327660  36.4026390 121.0152820   4.0947210  35.7552690
 121.6164850   3.7887420  37.1105580 113.2099750   3.3972100  38.6810870
 112.8056750   2.6849350  38.1856770 113.2962870   3.0525340  39.5698910
 113.6781450   7.0839660  40.8450080 113.3809740   6.4785130  40.1657860
 114.6281270   7.1216970  40.7339440 121.7667060  10.6571530  44.5073180
 121.2897620  11.4643720  44.3145790 121.0828850  10.0049860  44.6599390
 112.7699880   6.8221350  47.4957880 111.8728410   7.0461320  47.7431280
 112.7952750   6.9456290  46.5469280 119.8105100   3.6714470  33.4099140
 120.2498380   2.8336900  33.2636960 120.5233520   4.3043870  33.4963280
 111.5971100   3.6934670  46.0715250 111.4578870   4.5657470  46.4402650
 110.7152460   3.3507480  45.9263190 117.9200480   8.6110540  37.3780380
 118.3596390   9.3534870  36.9635770 117.8587370   8.8537110  38.3019340
 113.3951450   9.6356370  48.2800400 113.3666880  10.0399320  47.4128830
 113.2316420   8.7066730  48.1172000 109.9104380   2.2917080  36.1817520
 109.7901980   3.0179170  35.5698790 109.6005270   1.5219990  35.7045430
 125.3466270  10.4183470  49.5764570 125.8225990  10.8966360  50.2553650
 125.9673430  10.3500960  48.8510070 107.5489750   5.4632220  41.9886160
 107.6270170   5.5980990  41.0441880 108.1631430   4.7548110  42.1814280
 108.7937380   7.1632410  38.3992340 108.3865460   7.3047000  37.5445940
 109.6850390   6.8792570  38.1963550 124.7499520   7.6096320  46.7364580
 124.8762580   7.3708200  45.8181760 124.7920900   6.7780860  47.2086660
 118.6116260  11.3124320  45.3059390 119.1260930  11.2232330  46.1081820
 117.7685340  11.6584020  45.5987300 120.5870660  11.5979660  34.7343390
 120.4271800  11.3082600  35.6325220 120.4217370  10.8219790  34.1988620
 113.0659040  11.3778190  36.5115010 112.8901520  10.4613730  36.2982810
 112.2114780  11.7365480  36.7512810 120.2896790   9.1067220  33.2941390
 119.5961950   9.1044510  32.6343670 121.0319650   8.6826540  32.8635560
 119.8546720  10.7329930  37.3689880 120.3103670   9.9519310  37.6828500
 120.1939240  11.4436750  37.9131060 107.6049270   6.5046390  44.5280620
 107.7680310   6.0351750  43.7099990 108.0701720   5.9969950  45.1929460
 114.1019070   1.9785800  32.8109700 113.5335970   1.5304050  32.1845610
 114.8108070   2.3378580  32.2774850 109.1788250   5.8797820  46.6876430
 108.7943040   5.2391490  47.2859390 109.4900440   6.5833940  47.2571160
 115.3285390   2.7274360  42.1685050 115.6955520   2.2532930  42.9146390
 115.1390450   3.6015930  42.5093390 113.1184760   1.7683000  44.4869260
 112.8141830   2.6474980  44.7119620 114.0731220   1.8282790  44.5226700
 111.6466550   5.9743990  35.0836110 110.8728810   5.4341610  34.9234830
 112.3761180   5.4550600  34.7453870 122.4054530   4.9709350  40.8762500
 123.1253650   5.4664640  40.4858610 122.2036350   4.2927240  40.2316370
 117.7873330   5.0418410  46.7631500 117.7210640   4.1214080  46.5089090
 117.1578470   5.1393850  47.4776140 111.6903950   5.6424370  38.7214920
 112.2082620   4.8392630  38.6671810 111.2387970   5.5803510  39.5631750
 116.5773450   6.9090650  33.9942220 116.9189150   7.6532880  33.4985540
 115.7486160   7.2221770  34.3567050 109.1748490   2.6085740  45.6340620
 108.8163430   3.2739590  46.2213960 108.8803050   1.7769290  46.0053240
 112.3761610   3.0669980  48.5180170 112.0761750   3.2127160  47.6207990
 113.1472850   2.5075270  48.4253560 117.7190060   7.8638980  46.5135300
 117.7334600   6.9319940  46.2954210 117.0115160   7.9498740  47.1525070
 122.8527130   2.0478800  32.7833910 122.7690850   2.4793020  31.9330350
 123.5721320   2.5077150  33.2160730 123.9301270   4.5046320  45.8603880
 123.2049460   5.0975100  45.6633270 124.4576730   4.4969860  45.0617250
 123.8814380   8.9021060  35.5116040 123.2390540   8.2476680  35.7859760
 123.4945040   9.3076150  34.7356710 119.4600860   6.2306490  39.3587730
 119.8124680   5.6334620  38.6989100 118.5763190   5.9050720  39.5295980
 115.5464140   6.9904180  36.7658140 116.2335270   7.5373390  37.1465730
 114.7596560   7.5344910  36.8007750 107.6856540   2.6077000  32.2575220
 108.5551390   2.8901800  32.5411140 107.1946860   3.4212870  32.1424030
 114.8491350   3.9950210  36.3783500 115.3054130   4.8055460  36.6043690
 114.4979560   3.6773350  37.2101990 117.1523960   9.5056550  43.6075800
 117.7966180   9.7115930  44.2849220 117.5153400   8.7444950  43.1546650
 118.4256040   7.5088900  42.3253250 119.0678270   6.8082060  42.4385420
 118.9505390   8.2887340  42.1450140 122.2711760   7.7937520  32.0492390
 122.0449340   7.0767960  32.6417030 121.8807960   7.5449960  31.2114140
 120.1993660   8.3083800  45.5289310 120.5349900   8.8950490  46.2067230
 119.2794000   8.1776510  45.7587100 108.0527790  11.8204380  32.8236850
 108.4125430  12.4193720  32.1694120 107.9120130  12.3664270  33.5971880
 121.8528010   5.7109460  33.7106550 121.5649710   6.1722150  34.4984430
 122.6480180   5.2507230  33.9790770 108.0369650  10.0859240  47.2979250
 108.1460770   9.1453980  47.1574640 107.3850210  10.3513990  46.6492980
 116.0282240   8.3575130  48.6977370 115.7079110   7.6384370  49.2423060
 115.3540600   9.0330200  48.7713430 114.0696410   9.2035580  33.6410520
 114.0606510   9.9365270  33.0255030 113.1494770   8.9567160  33.7337480
 109.6703050   4.4250470  34.3857280 109.0631000   5.1649370  34.3952580
 110.1452400   4.5149830  33.5595480 117.0556010   9.2663820  32.3035710
 117.1567990   9.0627810  31.3737690 116.1557750   9.0122100  32.5083490
 115.6974120  11.7850140  36.9983380 115.9515620  11.7471530  36.0762750
 114.7486600  11.6583470  36.9911630 121.7026700   2.7042020  38.5741890
 120.7616840   2.7192250  38.7489580 122.0170770   1.9177980  39.0202190
 111.6808340   4.3861620  32.1345850 112.4471610   4.2742980  32.6971280
 111.7583030   3.6899590  31.4822620 123.7052280   9.8750870  40.2496150
 123.8299700  10.6982040  40.7219960 124.5717840   9.6641600  39.9020300
 111.1769810  11.9682080  39.9213280 111.9132290  11.4197540  40.1921850
 111.5610730  12.8338090  39.7819270 108.0615290   8.0355650  35.7954790
 107.1355070   8.2776790  35.7860200 108.5271720   8.8629910  35.6739540
 110.1828090  11.1528150  49.1098860 110.9840820  11.4740200  49.5234260
 109.6679910  10.7923730  49.8318770 114.2872120  11.1412390  31.7438850
 115.0800730  11.4301220  31.2920640 113.7676470  10.7104560  31.0651330
 119.0192720   7.2608020  49.0574270 118.4130880   7.2839620  48.3170020
 118.7146830   6.5291060  49.5941520 120.4493090  10.9888310  47.6683680
 121.4014840  10.9046330  47.6183920 120.3021310  11.6530020  48.3417470
 123.3402290  10.3682520  33.1675590 123.0543800   9.9547660  32.3529770
 123.1421840  11.2970230  33.0476110 107.9025900   3.6401610  48.0534910
 108.4064920   3.0608890  48.6251140 107.1633320   3.9241840  48.5911280
 114.8049520   6.3615800  31.6081200 114.7000160   5.7468150  32.3342580
 114.6373740   5.8381690  30.8244210 114.9563840   5.0472600  47.5870430
 114.1909510   5.6157600  47.5025100 115.1379800   4.7548810  46.6938660
 118.0452250   5.4235830  32.2123190 117.4962350   5.8705130  32.8565930
 118.6671510   4.9185080  32.7360860 122.0987190   6.7777930  48.1445450
 122.8396660   7.1153690  47.6412910 121.3359870   6.9469990  47.5915220
 109.9348980   1.7831200  48.9484980 109.9754320   1.4845070  49.8570210
 110.7894480   2.1838810  48.7892500 113.7127370   4.3826750  34.1088490
 114.1343790   4.2166620  34.9519880 113.8378210   3.5726980  33.6143630
 116.2255010   3.4064360  31.3565590 116.7460670   2.6913380  30.9906740
 116.8723410   4.0450230  31.6566100 120.7732850   4.8292760  46.6800660
 121.1873870   4.9837840  47.5291080 119.8383850   4.9547980  46.8426440
 121.2455020   2.1688920  48.6839810 121.8275790   1.4141240  48.5960290
 121.4216790   2.6996360  47.9071290 115.5348080   4.7813240  44.6496590
 115.9536190   5.6245970  44.4772830 114.6156710   4.9185280  44.4203370
 117.8711980   2.5129420  46.0334430 117.9908190   1.9170560  46.7729270
 118.7305980   2.5499110  45.6135730 120.2099880   3.0666610  44.6096940
 119.6835100   3.5909230  44.0062080 120.5531220   3.6994000  45.2406670
 113.3855500  11.0866250  45.7654320 112.8476590  11.8112310  45.4463020
 113.6389460  10.6096590  44.9751660 116.2417710  12.3217460  46.0240970
 116.1676410  13.2252600  46.3313340 115.3396550  12.0029360  45.9963040
 116.7903040  11.4875970  33.6467330 117.6853830  11.8260940  33.6686090
 116.8220670  10.7655380  33.0191610 110.4299200   6.8603020  31.8754330
 110.8674070   7.4032690  32.5311910 110.9146930   6.0349970  31.8850670
 107.6445000   9.6492050  39.3274590 107.9748010   8.7813110  39.0953230
 108.0736000   9.8550570  40.1579550 112.2406920   7.9801060  36.9876560
 111.9402460   7.8566030  37.8880470 112.1344410   7.1209650  36.5792290
 108.1335210  10.5162640  42.0656220 107.6966200  10.6963440  42.8980370
 108.7012890  11.2737260  41.9237940 123.7697390  10.0179640  46.3533530
 123.1699380  10.0772200  45.6097450 123.8991290   9.0784620  46.4830380
 125.0098840   7.7597460  31.6903240 124.1791800   7.8274110  32.1610470
 125.1870670   8.6501580  31.3870100 124.4655300   4.5044940  34.1937440
 125.2274210   5.0741590  34.2997130 124.4809670   3.9372140  34.9645750
 107.9659640   3.0282870  38.4245100 107.3108480   2.7594510  37.7804800
 108.8037590   2.9187350  37.9747080 125.4715270   5.3595040  39.0379370
 125.8424100   4.5762360  38.6315340 126.1117200   6.0484140  38.8596670
 122.4549030   6.7431620  44.4509690 121.6408870   7.1728780  44.7135480
 122.8623230   7.3550030  43.8378740 124.5174470   4.7979310  31.3509960
 124.7923310   5.7058190  31.2229180 124.3285210   4.7341840  32.2871950
 124.4139810   2.7348300  36.3439390 124.0383410   1.9676230  35.9120680
 123.6842930   3.1171000  36.8314320 109.0035570   3.4135440  42.9648440
 109.3708610   3.3262840  43.8444460 108.4346390   2.6501990  42.8655300
 123.8039430   1.8819820  45.9778910 123.5725520   1.6532570  45.0776860
 124.0643980   2.8019370  45.9323800 122.5125080  11.4950220  37.9777960
 123.1084150  11.1734790  37.3012380 122.7703230  11.0222040  38.7691230
 110.4187650   7.9268130  48.1268590 110.3757280   7.5561040  49.0083050
 110.5498660   8.8645700  48.2670410 114.1193680   9.4827720  43.7278310
 113.8785040   9.7502280  42.8408830 115.0596320   9.6533450  43.7829170
 125.3797840  11.5022100  44.5288950 124.8856120  11.8990970  43.8116080
 124.7711130  10.8771310  44.9226230 110.2575680  10.8730380  45.2466370
 109.6636000  10.7415080  45.9856410 110.2499520  10.0368520  44.7808470
 123.0637290  12.1445520  41.8075690 122.6040260  12.8961330  41.4333710
 122.4349750  11.4251990  41.7490490 109.8887910   8.2388760  44.1974410
 109.1621970   7.6194050  44.1300360 109.9497060   8.6329370  43.3272490
 113.4933010  10.4533760  40.9823820 114.0098030   9.8421120  40.4572080
 114.1430390  10.9562540  41.4734830 116.2328510  11.3442250  41.8092800
 116.5206320  11.0896550  40.9325810 116.7451730  10.7919610  42.3998370
 108.1717910  11.5563150  37.4071170 108.0039950  10.9233830  38.1053060
 107.3052420  11.7622550  37.0565360 109.7780610  10.2496380  34.8521310
 109.2528230  10.6304410  34.1483270 109.7025190  10.8747150  35.5731020
 116.3000870  12.2658350  49.1761000 117.2268180  12.0302620  49.2196960
 116.2851300  13.0930350  48.6947030 124.5345930  11.8083920  36.1735250
 124.7098120  11.1221660  35.5296170 123.8367500  12.3330970  35.7811920
 112.3773580  12.1978760  33.7270560 113.1092400  11.9138040  33.1794450
 112.6367250  11.9592040  34.6169940 111.5388370   8.3143490  33.7316890
 110.9097250   8.7828590  34.2802720 111.6536200   7.4692710  34.1663080
 122.8678430  11.4928210  49.0002040 123.6603750  10.9977440  48.7928000
 123.1611580  12.1718350  49.6077650 118.9938090   2.3649150  19.8818090
 118.9132140   1.4503760  19.6109800 118.5802510   2.8616220  19.1757800
 117.1256130   4.1428170  21.7627360 116.3498230   3.6628610  22.0525930
 117.7769060   3.4633820  21.5883520 111.1421960   4.4547980  22.6403120
 110.3106840   4.1996690  23.0399630 111.7502940   4.5258750  23.3761040
 121.1463560   8.5488360  20.5426490 120.6845090   7.7775600  20.8713660
 121.9589110   8.5754430  21.0478940 111.1223220   8.4888070  22.8361140
 111.4251260   7.5985810  22.6571360 111.8666810   9.0458290  22.6083390
 107.5146920   2.0155520  22.3085210 108.0863030   1.2477720  22.3088850
 107.5148460   2.3144280  21.3991820 117.3726870  10.8346370  20.1630480
 116.7538310  11.2903870  19.5924920 118.2278650  10.9897830  19.7620180
 116.5665120   6.8185360  21.7697520 116.4973400   5.8775300  21.6086650
 117.3284980   6.9086770  22.3420090 118.2390220   5.7185610  17.5562390
 117.6207490   6.1835060  16.9925110 118.7513470   6.4113090  17.9731900
 113.1021980   5.2461480  24.2345990 112.7691360   5.8730400  24.8767060
 113.2788660   5.7723360  23.4547660 112.3141080   7.2142280  26.0495170
 112.9315080   7.8893360  25.7679620 111.4534200   7.6230260  25.9582670
 107.6073420   6.4042140  14.9302020 107.2301400   6.8929240  14.1986920
 107.8646490   7.0767420  15.5608550 123.2318670   8.6781690  23.9649810
 122.5482190   9.3480800  23.9566480 123.7712960   8.8762340  23.1994670
 120.7677410  10.5225820  22.6794990 120.7804570  10.1188110  21.8117250
 120.2152630  11.2973110  22.5756420 122.0622830   7.2442040  17.7685160
 121.9519160   6.3016370  17.8934580 122.0591080   7.6057680  18.6547920
 120.1662850   5.4255660  24.0077600 120.5831640   5.2115770  23.1731060
 120.8902670   5.6828450  24.5786220 117.6043110   2.8707360  17.1247650
 116.6772390   2.8044740  17.3536120 117.7567930   3.8087490  17.0102890
 124.1124950   3.8242880  24.0993840 123.2843580   3.8935970  23.6243970
 124.7075430   4.4097190  23.6309670 121.6340400   4.4327660  17.6282900
 121.0152820   4.0947210  16.9809200 121.6164850   3.7887420  18.3362090
 113.2099750   3.3972100  19.9067380 112.8056750   2.6849350  19.4113280
 113.2962870   3.0525340  20.7955420 113.6781450   7.0839660  22.0706590
 113.3809740   6.4785130  21.3914370 114.6281270   7.1216970  21.9595950
 121.7667060  10.6571530  25.7329690 121.2897620  11.4643720  25.5402300
 121.0828850  10.0049860  25.8855900 112.7699880   6.8221350  28.7214390
 111.8728410   7.0461320  28.9687790 112.7952750   6.9456290  27.7725790
 119.8105100   3.6714470  14.6355650 120.2498380   2.8336900  14.4893470
 120.5233520   4.3043870  14.7219790 111.5971100   3.6934670  27.2971760
 111.4578870   4.5657470  27.6659160 110.7152460   3.3507480  27.1519700
 117.9200480   8.6110540  18.6036890 118.3596390   9.3534870  18.1892280
 117.8587370   8.8537110  19.5275850 113.3951450   9.6356370  29.5056910
 113.3666880  10.0399320  28.6385340 113.2316420   8.7066730  29.3428510
 109.9104380   2.2917080  17.4074030 109.7901980   3.0179170  16.7955300
 109.6005270   1.5219990  16.9301940 125.3466270  10.4183470  30.8021080
 125.8225990  10.8966360  31.4810160 125.9673430  10.3500960  30.0766580
 107.5489750   5.4632220  23.2142670 107.6270170   5.5980990  22.2698390
 108.1631430   4.7548110  23.4070790 108.7937380   7.1632410  19.6248850
 108.3865460   7.3047000  18.7702450 109.6850390   6.8792570  19.4220060
 124.7499520   7.6096320  27.9621090 124.8762580   7.3708200  27.0438270
 124.7920900   6.7780860  28.4343170 118.6116260  11.3124320  26.5315900
 119.1260930  11.2232330  27.3338330 117.7685340  11.6584020  26.8243810
 120.5870660  11.5979660  15.9599900 120.4271800  11.3082600  16.8581730
 120.4217370  10.8219790  15.4245130 113.0659040  11.3778190  17.7371520
 112.8901520  10.4613730  17.5239320 112.2114780  11.7365480  17.9769320
 120.2896790   9.1067220  14.5197900 119.5961950   9.1044510  13.8600180
 121.0319650   8.6826540  14.0892070 119.8546720  10.7329930  18.5946390
 120.3103670   9.9519310  18.9085010 120.1939240  11.4436750  19.1387570
 107.6049270   6.5046390  25.7537130 107.7680310   6.0351750  24.9356500
 108.0701720   5.9969950  26.4185970 114.1019070   1.9785800  14.0366210
 113.5335970   1.5304050  13.4102120 114.8108070   2.3378580  13.5031360
 109.1788250   5.8797820  27.9132940 108.7943040   5.2391490  28.5115900
 109.4900440   6.5833940  28.4827670 115.3285390   2.7274360  23.3941560
 115.6955520   2.2532930  24.1402900 115.1390450   3.6015930  23.7349900
 113.1184760   1.7683000  25.7125770 112.8141830   2.6474980  25.9376130
 114.0731220   1.8282790  25.7483210 111.6466550   5.9743990  16.3092620
 110.8728810   5.4341610  16.1491340 112.3761180   5.4550600  15.9710380
 122.4054530   4.9709350  22.1019010 123.1253650   5.4664640  21.7115120
 122.2036350   4.2927240  21.4572880 117.7873330   5.0418410  27.9888010
 117.7210640   4.1214080  27.7345600 117.1578470   5.1393850  28.7032650
 111.6903950   5.6424370  19.9471430 112.2082620   4.8392630  19.8928320
 111.2387970   5.5803510  20.7888260 116.5773450   6.9090650  15.2198730
 116.9189150   7.6532880  14.7242050 115.7486160   7.2221770  15.5823560
 109.1748490   2.6085740  26.8597130 108.8163430   3.2739590  27.4470470
 108.8803050   1.7769290  27.2309750 112.3761610   3.0669980  29.7436680
 112.0761750   3.2127160  28.8464500 113.1472850   2.5075270  29.6510070
 117.7190060   7.8638980  27.7391810 117.7334600   6.9319940  27.5210720
 117.0115160   7.9498740  28.3781580 122.8527130   2.0478800  14.0090420
 122.7690850   2.4793020  13.1586860 123.5721320   2.5077150  14.4417240
 123.9301270   4.5046320  27.0860390 123.2049460   5.0975100  26.8889780
 124.4576730   4.4969860  26.2873760 123.8814380   8.9021060  16.7372550
 123.2390540   8.2476680  17.0116270 123.4945040   9.3076150  15.9613220
 119.4600860   6.2306490  20.5844240 119.8124680   5.6334620  19.9245610
 118.5763190   5.9050720  20.7552490 115.5464140   6.9904180  17.9914650
 116.2335270   7.5373390  18.3722240 114.7596560   7.5344910  18.0264260
 107.6856540   2.6077000  13.4831730 108.5551390   2.8901800  13.7667650
 107.1946860   3.4212870  13.3680540 114.8491350   3.9950210  17.6040010
 115.3054130   4.8055460  17.8300200 114.4979560   3.6773350  18.4358500
 117.1523960   9.5056550  24.8332310 117.7966180   9.7115930  25.5105730
 117.5153400   8.7444950  24.3803160 118.4256040   7.5088900  23.5509760
 119.0678270   6.8082060  23.6641930 118.9505390   8.2887340  23.3706650
 122.2711760   7.7937520  13.2748900 122.0449340   7.0767960  13.8673540
 121.8807960   7.5449960  12.4370650 120.1993660   8.3083800  26.7545820
 120.5349900   8.8950490  27.4323740 119.2794000   8.1776510  26.9843610
 108.0527790  11.8204380  14.0493360 108.4125430  12.4193720  13.3950630
 107.9120130  12.3664270  14.8228390 121.8528010   5.7109460  14.9363060
 121.5649710   6.1722150  15.7240940 122.6480180   5.2507230  15.2047280
 108.0369650  10.0859240  28.5235760 108.1460770   9.1453980  28.3831150
 107.3850210  10.3513990  27.8749490 116.0282240   8.3575130  29.9233880
 115.7079110   7.6384370  30.4679570 115.3540600   9.0330200  29.9969940
 114.0696410   9.2035580  14.8667030 114.0606510   9.9365270  14.2511540
 113.1494770   8.9567160  14.9593990 109.6703050   4.4250470  15.6113790
 109.0631000   5.1649370  15.6209090 110.1452400   4.5149830  14.7851990
 117.0556010   9.2663820  13.5292220 117.1567990   9.0627810  12.5994200
 116.1557750   9.0122100  13.7340000 115.6974120  11.7850140  18.2239890
 115.9515620  11.7471530  17.3019260 114.7486600  11.6583470  18.2168140
 121.7026700   2.7042020  19.7998400 120.7616840   2.7192250  19.9746090
 122.0170770   1.9177980  20.2458700 111.6808340   4.3861620  13.3602360
 112.4471610   4.2742980  13.9227790 111.7583030   3.6899590  12.7079130
 123.7052280   9.8750870  21.4752660 123.8299700  10.6982040  21.9476470
 124.5717840   9.6641600  21.1276810 111.1769810  11.9682080  21.1469790
 111.9132290  11.4197540  21.4178360 111.5610730  12.8338090  21.0075780
 108.0615290   8.0355650  17.0211300 107.1355070   8.2776790  17.0116710
 108.5271720   8.8629910  16.8996050 110.1828090  11.1528150  30.3355370
 110.9840820  11.4740200  30.7490770 109.6679910  10.7923730  31.0575280
 114.2872120  11.1412390  12.9695360 115.0800730  11.4301220  12.5177150
 113.7676470  10.7104560  12.2907840 119.0192720   7.2608020  30.2830780
 118.4130880   7.2839620  29.5426530 118.7146830   6.5291060  30.8198030
 120.4493090  10.9888310  28.8940190 121.4014840  10.9046330  28.8440430
 120.3021310  11.6530020  29.5673980 123.3402290  10.3682520  14.3932100
 123.0543800   9.9547660  13.5786280 123.1421840  11.2970230  14.2732620
 107.9025900   3.6401610  29.2791420 108.4064920   3.0608890  29.8507650
 107.1633320   3.9241840  29.8167790 114.8049520   6.3615800  12.8337710
 114.7000160   5.7468150  13.5599090 114.6373740   5.8381690  12.0500720
 114.9563840   5.0472600  28.8126940 114.1909510   5.6157600  28.7281610
 115.1379800   4.7548810  27.9195170 118.0452250   5.4235830  13.4379700
 117.4962350   5.8705130  14.0822440 118.6671510   4.9185080  13.9617370
 122.0987190   6.7777930  29.3701960 122.8396660   7.1153690  28.8669420
 121.3359870   6.9469990  28.8171730 109.9348980   1.7831200  30.1741490
 109.9754320   1.4845070  31.0826720 110.7894480   2.1838810  30.0149010
 113.7127370   4.3826750  15.3345000 114.1343790   4.2166620  16.1776390
 113.8378210   3.5726980  14.8400140 116.2255010   3.4064360  12.5822100
 116.7460670   2.6913380  12.2163250 116.8723410   4.0450230  12.8822610
 120.7732850   4.8292760  27.9057170 121.1873870   4.9837840  28.7547590
 119.8383850   4.9547980  28.0682950 121.2455020   2.1688920  29.9096320
 121.8275790   1.4141240  29.8216800 121.4216790   2.6996360  29.1327800
 115.5348080   4.7813240  25.8753100 115.9536190   5.6245970  25.7029340
 114.6156710   4.9185280  25.6459880 117.8711980   2.5129420  27.2590940
 117.9908190   1.9170560  27.9985780 118.7305980   2.5499110  26.8392240
 120.2099880   3.0666610  25.8353450 119.6835100   3.5909230  25.2318590
 120.5531220   3.6994000  26.4663180 113.3855500  11.0866250  26.9910830
 112.8476590  11.8112310  26.6719530 113.6389460  10.6096590  26.2008170
 116.2417710  12.3217460  27.2497480 116.1676410  13.2252600  27.5569850
 115.3396550  12.0029360  27.2219550 116.7903040  11.4875970  14.8723840
 117.6853830  11.8260940  14.8942600 116.8220670  10.7655380  14.2448120
 110.4299200   6.8603020  13.1010840 110.8674070   7.4032690  13.7568420
 110.9146930   6.0349970  13.1107180 107.6445000   9.6492050  20.5531100
 107.9748010   8.7813110  20.3209740 108.0736000   9.8550570  21.3836060
 112.2406920   7.9801060  18.2133070 111.9402460   7.8566030  19.1136980
 112.1344410   7.1209650  17.8048800 108.1335210  10.5162640  23.2912730
 107.6966200  10.6963440  24.1236880 108.7012890  11.2737260  23.1494450
 123.7697390  10.0179640  27.5790040 123.1699380  10.0772200  26.8353960
 123.8991290   9.0784620  27.7086890 125.0098840   7.7597460  12.9159750
 124.1791800   7.8274110  13.3866980 125.1870670   8.6501580  12.6126610
 124.4655300   4.5044940  15.4193950 125.2274210   5.0741590  15.5253640
 124.4809670   3.9372140  16.1902260 107.9659640   3.0282870  19.6501610
 107.3108480   2.7594510  19.0061310 108.8037590   2.9187350  19.2003590
 125.4715270   5.3595040  20.2635880 125.8424100   4.5762360  19.8571850
 126.1117200   6.0484140  20.0853180 122.4549030   6.7431620  25.6766200
 121.6408870   7.1728780  25.9391990 122.8623230   7.3550030  25.0635250
 124.5174470   4.7979310  12.5766470 124.7923310   5.7058190  12.4485690
 124.3285210   4.7341840  13.5128460 124.4139810   2.7348300  17.5695900
 124.0383410   1.9676230  17.1377190 123.6842930   3.1171000  18.0570830
 109.0035570   3.4135440  24.1904950 109.3708610   3.3262840  25.0700970
 108.4346390   2.6501990  24.0911810 123.8039430   1.8819820  27.2035420
 123.5725520   1.6532570  26.3033370 124.0643980   2.8019370  27.1580310
 122.5125080  11.4950220  19.2034470 123.1084150  11.1734790  18.5268890
 122.7703230  11.0222040  19.9947740 110.4187650   7.9268130  29.3525100
 110.3757280   7.5561040  30.2339560 110.5498660   8.8645700  29.4926920
 114.1193680   9.4827720  24.9534820 113.8785040   9.7502280  24.0665340
 115.0596320   9.6533450  25.0085680 125.3797840  11.5022100  25.7545460
 124.8856120  11.8990970  25.0372590 124.7711130  10.8771310  26.1482740
 110.2575680  10.8730380  26.4722880 109.6636000  10.7415080  27.2112920
 110.2499520  10.0368520  26.0064980 123.0637290  12.1445520  23.0332200
 122.6040260  12.8961330  22.6590220 122.4349750  11.4251990  22.9747000
 109.8887910   8.2388760  25.4230920 109.1621970   7.6194050  25.3556870
 109.9497060   8.6329370  24.5529000 116.2328510  11.3442250  23.0349310
 116.5206320  11.0896550  22.1582320 116.7451730  10.7919610  23.6254880
 108.1717910  11.5563150  18.6327680 108.0039950  10.9233830  19.3309570
 107.3052420  11.7622550  18.2821870 109.7780610  10.2496380  16.0777820
 109.2528230  10.6304410  15.3739780 109.7025190  10.8747150  16.7987530
 116.3000870  12.2658350  30.4017510 117.2268180  12.0302620  30.4453470
 116.2851300  13.0930350  29.9203540 124.5345930  11.8083920  17.3991760
 124.7098120  11.1221660  16.7552680 123.8367500  12.3330970  17.0068430
 112.3773580  12.1978760  14.9527070 113.1092400  11.9138040  14.4050960
 112.6367250  11.9592040  15.8426450 111.5388370   8.3143490  14.9573400
 110.9097250   8.7828590  15.5059230 111.6536200   7.4692710  15.3919590
 122.8678430  11.4928210  30.2258550 123.6603750  10.9977440  30.0184510
 123.1611580  12.1718350  30.8334160 117.1256130   4.1428170   2.9883870
 116.3498230   3.6628610   3.2782440 117.7769060   3.4633820   2.8140030
 111.1421960   4.4547980   3.8659630 110.3106840   4.1996690   4.2656140
 111.7502940   4.5258750   4.6017550 121.1463560   8.5488360   1.7683000
 120.6845090   7.7775600   2.0970170 121.9589110   8.5754430   2.2735450
 111.1223220   8.4888070   4.0617650 111.4251260   7.5985810   3.8827870
 111.8666810   9.0458290   3.8339900 107.5146920   2.0155520   3.5341720
 108.0863030   1.2477720   3.5345360 107.5148460   2.3144280   2.6248330
 116.5665120   6.8185360   2.9954030 116.4973400   5.8775300   2.8343160
 117.3284980   6.9086770   3.5676600 113.1021980   5.2461480   5.4602500
 112.7691360   5.8730400   6.1023570 113.2788660   5.7723360   4.6804170
 112.3141080   7.2142280   7.2751680 112.9315080   7.8893360   6.9936130
 111.4534200   7.6230260   7.1839180 123.2318670   8.6781690   5.1906320
 122.5482190   9.3480800   5.1822990 123.7712960   8.8762340   4.4251180
 120.7677410  10.5225820   3.9051500 120.7804570  10.1188110   3.0373760
 120.2152630  11.2973110   3.8012930 120.1662850   5.4255660   5.2334110
 120.5831640   5.2115770   4.3987570 120.8902670   5.6828450   5.8042730
 124.1124950   3.8242880   5.3250350 123.2843580   3.8935970   4.8500480
 124.7075430   4.4097190   4.8566180 113.6781450   7.0839660   3.2963100
 113.3809740   6.4785130   2.6170880 114.6281270   7.1216970   3.1852460
 121.7667060  10.6571530   6.9586200 121.2897620  11.4643720   6.7658810
 121.0828850  10.0049860   7.1112410 112.7699880   6.8221350   9.9470900
 111.8728410   7.0461320  10.1944300 112.7952750   6.9456290   8.9982300
 111.5971100   3.6934670   8.5228270 111.4578870   4.5657470   8.8915670
 110.7152460   3.3507480   8.3776210 113.3951450   9.6356370  10.7313420
 113.3666880  10.0399320   9.8641850 113.2316420   8.7066730  10.5685020
 125.3466270  10.4183470  12.0277590 125.8225990  10.8966360  12.7066670
 125.9673430  10.3500960  11.3023090 107.5489750   5.4632220   4.4399180
 107.6270170   5.5980990   3.4954900 108.1631430   4.7548110   4.6327300
 124.7499520   7.6096320   9.1877600 124.8762580   7.3708200   8.2694780
 124.7920900   6.7780860   9.6599680 118.6116260  11.3124320   7.7572410
 119.1260930  11.2232330   8.5594840 117.7685340  11.6584020   8.0500320
 107.6049270   6.5046390   6.9793640 107.7680310   6.0351750   6.1613010
 108.0701720   5.9969950   7.6442480 109.1788250   5.8797820   9.1389450
 108.7943040   5.2391490   9.7372410 109.4900440   6.5833940   9.7084180
 115.3285390   2.7274360   4.6198070 115.6955520   2.2532930   5.3659410
 115.1390450   3.6015930   4.9606410 113.1184760   1.7683000   6.9382280
 112.8141830   2.6474980   7.1632640 114.0731220   1.8282790   6.9739720
 122.4054530   4.9709350   3.3275520 123.1253650   5.4664640   2.9371630
 122.2036350   4.2927240   2.6829390 117.7873330   5.0418410   9.2144520
 117.7210640   4.1214080   8.9602110 117.1578470   5.1393850   9.9289160
 109.1748490   2.6085740   8.0853640 108.8163430   3.2739590   8.6726980
 108.8803050   1.7769290   8.4566260 112.3761610   3.0669980  10.9693190
 112.0761750   3.2127160  10.0721010 113.1472850   2.5075270  10.8766580
 117.7190060   7.8638980   8.9648320 117.7334600   6.9319940   8.7467230
 117.0115160   7.9498740   9.6038090 123.9301270   4.5046320   8.3116900
 123.2049460   5.0975100   8.1146290 124.4576730   4.4969860   7.5130270
 117.1523960   9.5056550   6.0588820 117.7966180   9.7115930   6.7362240
 117.5153400   8.7444950   5.6059670 118.4256040   7.5088900   4.7766270
 119.0678270   6.8082060   4.8898440 118.9505390   8.2887340   4.5963160
 120.1993660   8.3083800   7.9802330 120.5349900   8.8950490   8.6580250
 119.2794000   8.1776510   8.2100120 108.0369650  10.0859240   9.7492270
 108.1460770   9.1453980   9.6087660 107.3850210  10.3513990   9.1006000
 116.0282240   8.3575130  11.1490390 115.7079110   7.6384370  11.6936080
 115.3540600   9.0330200  11.2226450 123.7052280   9.8750870   2.7009170
 123.8299700  10.6982040   3.1732980 124.5717840   9.6641600   2.3533320
 111.1769810  11.9682080   2.3726300 111.9132290  11.4197540   2.6434870
 111.5610730  12.8338090   2.2332290 119.0192720   7.2608020  11.5087290
 118.4130880   7.2839620  10.7683040 118.7146830   6.5291060  12.0454540
 120.4493090  10.9888310  10.1196700 121.4014840  10.9046330  10.0696940
 120.3021310  11.6530020  10.7930490 107.9025900   3.6401610  10.5047930
 108.4064920   3.0608890  11.0764160 107.1633320   3.9241840  11.0424300
 114.9563840   5.0472600  10.0383450 114.1909510   5.6157600   9.9538120
 115.1379800   4.7548810   9.1451680 122.0987190   6.7777930  10.5958470
 122.8396660   7.1153690  10.0925930 121.3359870   6.9469990  10.0428240
 109.9348980   1.7831200  11.3998000 109.9754320   1.4845070  12.3083230
 110.7894480   2.1838810  11.2405520 120.7732850   4.8292760   9.1313680
 121.1873870   4.9837840   9.9804100 119.8383850   4.9547980   9.2939460
 121.2455020   2.1688920  11.1352830 121.8275790   1.4141240  11.0473310
 121.4216790   2.6996360  10.3584310 115.5348080   4.7813240   7.1009610
 115.9536190   5.6245970   6.9285850 114.6156710   4.9185280   6.8716390
 117.8711980   2.5129420   8.4847450 117.9908190   1.9170560   9.2242290
 118.7305980   2.5499110   8.0648750 120.2099880   3.0666610   7.0609960
 119.6835100   3.5909230   6.4575100 120.5531220   3.6994000   7.6919690
 113.3855500  11.0866250   8.2167340 112.8476590  11.8112310   7.8976040
 113.6389460  10.6096590   7.4264680 116.2417710  12.3217460   8.4753990
 116.1676410  13.2252600   8.7826360 115.3396550  12.0029360   8.4476060
 107.6445000   9.6492050   1.7787610 107.9748010   8.7813110   1.5466250
 108.0736000   9.8550570   2.6092570 108.1335210  10.5162640   4.5169240
 107.6966200  10.6963440   5.3493390 108.7012890  11.2737260   4.3750960
 123.7697390  10.0179640   8.8046550 123.1699380  10.0772200   8.0610470
 123.8991290   9.0784620   8.9343400 122.4549030   6.7431620   6.9022710
 121.6408870   7.1728780   7.1648500 122.8623230   7.3550030   6.2891760
 109.0035570   3.4135440   5.4161460 109.3708610   3.3262840   6.2957480
 108.4346390   2.6501990   5.3168320 123.8039430   1.8819820   8.4291930
 123.5725520   1.6532570   7.5289880 124.0643980   2.8019370   8.3836820
 110.4187650   7.9268130  10.5781610 110.3757280   7.5561040  11.4596070
 110.5498660   8.8645700  10.7183430 114.1193680   9.4827720   6.1791330
 113.8785040   9.7502280   5.2921850 115.0596320   9.6533450   6.2342190
 125.3797840  11.5022100   6.9801970 124.8856120  11.8990970   6.2629100
 124.7711130  10.8771310   7.3739250 110.2575680  10.8730380   7.6979390
 109.6636000  10.7415080   8.4369430 110.2499520  10.0368520   7.2321490
 123.0637290  12.1445520   4.2588710 122.6040260  12.8961330   3.8846730
 122.4349750  11.4251990   4.2003510 109.8887910   8.2388760   6.6487430
 109.1621970   7.6194050   6.5813380 109.9497060   8.6329370   5.7785510
 113.4933010  10.4533760   3.4336840 114.0098030   9.8421120   2.9085100
 114.1430390  10.9562540   3.9247850 116.2328510  11.3442250   4.2605820
 116.5206320  11.0896550   3.3838830 116.7451730  10.7919610   4.8511390
 116.3000870  12.2658350  11.6274020 117.2268180  12.0302620  11.6709980
 116.2851300  13.0930350  11.1460050 122.8678430  11.4928210  11.4515060
 123.6603750  10.9977440  11.2441020 123.1611580  12.1718350  12.0590670
 100.2194600  96.2366600  57.4305070 100.1388650  95.3221210  57.1596780
  99.8059020  96.7333670  56.7244780  98.3512640  98.0145620  59.3114340
  97.5754740  97.5346060  59.6012910  99.0025570  97.3351270  59.1370500
  90.7770420  93.2867320  53.9732490  89.8887120  93.6283290  53.8712370
  91.0611610  93.0867640  53.0813320  88.7403430  95.8872970  59.8572190
  89.3119540  95.1195170  59.8575830  88.7404970  96.1861730  58.9478800
  98.8226800  93.4973190  59.5453430  99.1991620  92.6245070  59.4327100
  98.7246310  93.8331890  58.6543870  92.9531810  91.8698820  55.0070870
  93.0598560  92.7702550  55.3139630  92.0424170  91.8216790  54.7165520
 102.6050920  90.9923630  56.4781770 103.4260540  90.5020200  56.5207250
 102.6385000  91.5821290  57.2313610  94.7939540  94.8385190  59.3396050
  95.3017760  95.3366160  59.9801070  95.3252780  94.0620390  59.1635410
 102.8412400  92.9324010  59.2509310 102.1367970  93.2208900  59.8312420
 103.2024560  93.7424120  58.8908870 105.9099320  92.3778800  59.6418520
 104.9624230  92.4117780  59.7733950 106.2349310  93.1917750  60.0267880
  96.4418860  88.6775980  57.9374510  96.7493840  88.1222870  57.2210010
  95.5119560  88.8120440  57.7547500  98.8299620  96.7424810  54.6734630
  97.9028900  96.6762190  54.9023100  98.9824440  97.6804940  54.5589870
  98.8168700  93.0141810  51.6701790  97.8772370  93.1755770  51.7554250
  99.1351960  93.7327490  51.1237780 102.8596910  98.3045110  55.1769880
 102.2409330  97.9664660  54.5296180 102.8421360  97.6604870  55.8849070
  94.4356260  97.2689550  57.4554360  94.0313260  96.5566800  56.9600260
  94.5219380  96.9242790  58.3442400 101.0361610  97.5431920  52.1842630
 101.4754890  96.7054350  52.0380450 101.7490030  98.1761320  52.2706770
 104.6178750  88.7974730  50.4983670 104.3051410  88.8901560  51.3982740
 105.3791220  89.3755760  50.4481100  91.1360890  96.1634530  54.9561010
  91.0158490  96.8896620  54.3442280  90.8261780  95.3937440  54.4788920
  93.6024550  89.5069600  58.3384680  93.1592700  90.2879140  58.0069200
  94.1609540  89.8299490  59.0455620  96.7183370  89.1280300  53.2190510
  96.0937550  89.1240170  53.9443820  96.6313490  88.2611260  52.8226480
  95.6400450  90.0516930  60.1974280  95.9372780  90.9579760  60.1166300
  96.1886010  89.5635710  59.5833850  93.3938770  94.6303170  56.0665930
  93.1679690  94.4140340  56.9712550  92.6131300  95.0631630  55.7211900
 100.6236530  94.6366540  54.6656580 100.0245420  95.3602340  54.4820200
 101.1716140  94.5743320  53.8833030  99.2301400  93.2730080  56.6959860
  99.6230970  93.5902280  55.8828550  99.5918250  92.3941960  56.8104380
  88.2665570  89.8630880  58.9190060  87.9778620  90.4333740  59.6315040
  89.0111330  89.3835330  59.2821290  88.4535800  93.8051000  50.1292780
  88.3710470  94.7481760  50.2707770  88.1018860  93.6625910  49.2505130
  96.2533930  92.5390030  59.1963130  96.2569990  92.0979980  58.3467670
  97.1485050  92.8607360  59.3034950  92.1036310  92.4216520  58.1557340
  91.7636360  92.8991750  58.9124390  91.3413630  91.9681640  57.7958440
  96.3154080  93.5402110  52.1869890  96.4366900  93.4988590  53.1355710
  95.9302590  94.4026260  52.0316620  95.3275580  95.8503250  51.5853190
  94.7592480  95.4021500  50.9589100  96.0364580  96.2096030  51.0518340
  89.4182390  91.3435500  57.0722010  89.1329310  90.9791170  57.9100630
  89.3561250  90.6115960  56.4585150  99.0920980  90.2364760  53.7935380
  98.2785590  89.7377930  53.7180690  98.8982930  91.0763010  53.3771730
 101.8069370  94.6084410  52.0897540 102.6948990  94.9201640  51.9148880
 101.7774460  93.7356660  51.6978120 104.0783640  95.9196250  51.5577400
 103.9947360  96.3510470  50.7073840 104.7977830  96.3794600  51.9904220
  88.9113050  96.4794450  51.0318710  89.7807900  96.7619250  51.3154630
  88.4203370  97.2930320  50.9167520  96.0747860  97.8667660  55.1526990
  96.5310640  98.6772910  55.3787180  95.7236070  97.5490800  55.9845480
  91.9759640  88.2105310  55.6249510  91.8474270  88.2023210  56.5734430
  91.1521660  88.5488400  55.2740520 103.8354380  91.4175680  53.6445220
 103.2067540  91.5221350  52.9303450 103.3406300  91.6372460  54.4339100
  95.8038410  93.6961630  55.0603100  95.0954560  94.1647970  55.5016710
  96.0882890  93.0383640  55.6948290  99.8353840  90.4212290  56.4998890
  99.7121620  90.4398420  55.5508400 100.7838400  90.4691230  56.6197290
  94.0073430  92.0046710  52.4353810  94.8563960  92.4416860  52.3694000
  93.6404700  92.3166970  53.2625870 102.9283210  96.5759470  57.3485380
 101.9873350  96.5909700  57.5233070 103.2427280  95.7895430  57.7945680
  92.9064850  98.2579070  50.9089340  93.6728120  98.1460430  51.4714770
  92.9839540  97.5617040  50.2566110  91.6011610  95.6904140  51.5922230
  91.6815200  94.7431650  51.7039630  92.4931360  96.0211020  51.6982890
  94.9383880  98.2544200  52.8831980  95.3600300  98.0884070  53.7263370
  95.0634720  97.4444430  52.3887120  97.4511520  97.2781810  50.1309080
  97.9717180  96.5630830  49.7650230  98.0979920  97.9167680  50.4309590
  93.8342780  94.3277430  49.8290140  93.6331840  93.4644790  50.1903480
  93.6634830  94.2410790  48.8911740 101.3131090  89.1385660  52.3577020
 101.5933380  88.2953560  52.7136440 100.5396820  89.3708770  52.8715770
  92.6325580  91.4278050  49.8168020  92.9351480  91.4345480  48.9087170
  93.3720170  91.0775910  50.3135680  95.8510510  90.3712670  50.8024220
  95.5032510  89.6936660  50.2226670  96.0523280  89.9102180  51.6167610
 105.6911810  98.3762390  52.9680930 106.4530720  98.9459040  53.0740620
 105.7066180  97.8089590  53.7389240  89.1916150  96.9000320  57.1988590
  88.5364990  96.6311960  56.5548290  90.0294100  96.7904800  56.7490570
 102.1406590  91.6941610  51.4207080 102.5591470  91.5072590  50.5803740
 101.8342650  90.8420660  51.7310010 105.6396320  96.6065750  55.1182880
 105.2639920  95.8393680  54.6864170 104.9099440  96.9888450  55.6057810
  88.4054230  94.1099250  53.1413920  87.5018310  94.3729450  52.9665580
  88.8894850  94.3810420  52.3613880 104.9147280  94.8323240  58.4190120
 105.4384760  94.3385890  57.7880290 105.5006700  94.9673600  59.1637690
  90.9481440  93.1664790  51.0508300  91.6573140  92.7448010  50.5655580
  90.2321380  93.2340020  50.4191650  90.5955600  89.2204120  50.0910950
  91.3183730  89.7613060  50.4092170  90.8680120  88.9467540  49.2152490
 104.4047250  94.0896590  54.3582530 104.9006370  93.8567460  55.1431410
 104.2063320  93.2508430  53.9420170 105.8334410  92.7257540  56.8920210
 105.7233690  92.5713580  57.8302480 106.5942000  92.1978480  56.6495620
 106.7224680  90.5565460  50.1326350 107.6473990  90.4246640  49.9244640
 106.7000470  90.6358280  51.0862800 106.7963170  91.3276120  52.7583060
 106.0014670  91.2621240  53.2875970 107.0006450  92.2626760  52.7468410
 103.2283100  89.6573000  59.2081890 103.6691190  89.6018100  58.3603490
 102.9590690  90.5731010  59.2792070 105.0921670  89.2888240  57.2190710
 105.0310070  88.3449460  57.0721730 105.8713700  89.3968330  57.7644170
  90.0202440  89.2597380  53.6846520  90.7781800  89.3726260  53.1110550
  89.5579610  90.0966580  53.6389950  96.5616250  91.3736650  56.6748830
  95.7490760  90.9993540  56.3344710  97.0657890  90.6181730  56.9770020
 101.0641230  88.0379100  57.9131900 101.6670600  88.6099310  58.3880420
 100.3234220  88.6018540  57.6905800 104.2075830  88.4400660  53.1872180
 104.4026460  89.3384110  53.4539610 103.4205700  88.2087740  53.6805130
  92.3927590  89.7861430  52.2248490  92.9220350  88.9991230  52.0956440
  93.0255910  90.4652620  52.4584020  94.5865430  89.5236570  55.2793880
  93.9568170  88.8223880  55.4464010  94.0470570  90.2840700  55.0627040
 100.2194600  96.2366600  38.6561580 100.1388650  95.3221210  38.3853290
  99.8059020  96.7333670  37.9501290  98.3512640  98.0145620  40.5370850
  97.5754740  97.5346060  40.8269420  99.0025570  97.3351270  40.3627010
  92.3678470  98.3265430  41.4146610  91.5363350  98.0714140  41.8143120
  92.9759450  98.3976200  42.1504530  90.7770420  93.2867320  35.1989000
  89.8887120  93.6283290  35.0968880  91.0611610  93.0867640  34.3069830
  88.7403430  95.8872970  41.0828700  89.3119540  95.1195170  41.0832340
  88.7404970  96.1861730  40.1735310  89.9828300  91.2957330  42.8697630
  89.8031140  90.3983080  43.1500390  89.5808380  91.8429200  43.5444580
  98.8226800  93.4973190  40.7709940  99.1991620  92.6245070  40.6583610
  98.7246310  93.8331890  39.8800380  92.9531810  91.8698820  36.2327380
  93.0598560  92.7702550  36.5396140  92.0424170  91.8216790  35.9422030
 102.6050920  90.9923630  37.7038280 103.4260540  90.5020200  37.7463760
 102.6385000  91.5821290  38.4570120  90.6014970  93.7917830  41.4779970
  91.2825080  94.0556200  42.0967370  90.2863020  92.9518700  41.8117980
  94.7939540  94.8385190  40.5652560  95.3017760  95.3366160  41.2057580
  95.3252780  94.0620390  40.3891920 106.8950470  93.0090380  44.2681910
 106.1902640  93.3972090  43.7497020 107.1608390  93.7040670  44.8702840
  93.0775640  89.4783750  44.8315980  93.0794080  89.9956140  44.0261880
  92.2479950  89.0013930  44.8085910 102.8412400  92.9324010  40.4765820
 102.1367970  93.2208900  41.0568930 103.2024560  93.7424120  40.1165380
  92.7590970  91.1893710  42.8386430  93.1007780  92.0335760  42.5440300
  91.8206780  91.3377450  42.9551770 105.9099320  92.3778800  40.8675030
 104.9624230  92.4117780  40.9990460 106.2349310  93.1917750  41.2524390
  96.4418860  88.6775980  39.1631020  96.7493840  88.1222870  38.4466520
  95.5119560  88.8120440  38.9804010  98.8299620  96.7424810  35.8991140
  97.9028900  96.6762190  36.1279610  98.9824440  97.6804940  35.7846380
  98.8168700  93.0141810  32.8958300  97.8772370  93.1755770  32.9810760
  99.1351960  93.7327490  32.3494290 105.3381460  97.6960330  42.8737330
 104.5100090  97.7653420  42.3987460 105.9331940  98.2814640  42.4053160
 102.8596910  98.3045110  36.4026390 102.2409330  97.9664660  35.7552690
 102.8421360  97.6604870  37.1105580 102.3023470  94.4829650  43.8192200
 101.8894650  95.3083360  44.0732190 101.5699420  93.8974690  43.6268560
  94.4356260  97.2689550  38.6810870  94.0313260  96.5566800  38.1856770
  94.5219380  96.9242790  39.5698910  93.1484880  94.0432760  42.4609910
  93.6999470  94.1528100  41.6863160  93.6628390  94.4170360  43.1765140
 101.0361610  97.5431920  33.4099140 101.4754890  96.7054350  33.2636960
 101.7490030  98.1761320  33.4963280  92.8227610  97.5652120  46.0715250
  92.6835380  98.4374920  46.4402650  91.9408970  97.2224930  45.9263190
 104.6178750  88.7974730  31.7240180 104.3051410  88.8901560  32.6239250
 105.3791220  89.3755760  31.6737610  91.1360890  96.1634530  36.1817520
  91.0158490  96.8896620  35.5698790  90.8261780  95.3937440  35.7045430
 105.8280040  93.5346230  47.7014320 105.2124310  94.0425900  47.1729780
 105.5076460  92.6344560  47.6440260  93.6024550  89.5069600  39.5641190
  93.1592700  90.2879140  39.2325710  94.1609540  89.8299490  40.2712130
  97.8894360  92.3738120  45.1676510  97.4273730  92.5821140  45.9796450
  97.4872470  91.5597470  44.8647180 102.8898870  93.5947070  46.2973170
 102.0392460  93.2952820  46.6182240 102.7300660  93.8389080  45.3856990
  99.9848580  95.0948820  48.3971960 100.3101990  94.2612570  48.0574190
 100.7728910  95.6177340  48.5450290  96.7183370  89.1280300  34.4447020
  96.0937550  89.1240170  35.1700330  96.6313490  88.2611260  34.0482990
  95.6400450  90.0516930  41.4230790  95.9372780  90.9579760  41.3422810
  96.1886010  89.5635710  40.8090360  93.3938770  94.6303170  37.2922440
  93.1679690  94.4140340  38.1969060  92.6131300  95.0631630  36.9468410
 100.6236530  94.6366540  35.8913090 100.0245420  95.3602340  35.7076710
 101.1716140  94.5743320  35.1089540  95.8337980  95.5288750  47.9582710
  95.7381580  94.5883480  47.8083110  96.6769960  95.7503820  47.5630780
  99.2301400  93.2730080  37.9216370  99.6230970  93.5902280  37.1085060
  99.5918250  92.3941960  38.0360890  90.9648520  91.9402420  46.1116490
  90.5711910  92.7877630  46.3189270  90.2766920  91.3028790  46.3025130
  97.5393570  92.0237390  49.1813230  96.8491890  91.8309590  49.8159320
  98.2825870  92.3072030  49.7137530  88.2665570  89.8630880  40.1446570
  87.9778620  90.4333740  40.8571550  89.0111330  89.3835330  40.5077800
  88.4535800  93.8051000  31.3549290  88.3710470  94.7481760  31.4964280
  88.1018860  93.6625910  30.4761640  99.8156540  95.8635830  42.0167150
  99.0837660  96.3722640  42.3657250  99.4180880  95.0465810  41.7155930
  96.2533930  92.5390030  40.4219640  96.2569990  92.0979980  39.5724180
  97.1485050  92.8607360  40.5291460  92.1036310  92.4216520  39.3813850
  91.7636360  92.8991750  40.1380900  91.3413630  91.9681640  39.0214950
  96.3154080  93.5402110  33.4126400  96.4366900  93.4988590  34.3612220
  95.9302590  94.4026260  33.2573130 100.2782450  91.3169510  41.4290090
 100.2955190  91.7678160  42.2731940 100.0298030  90.4175150  41.6423530
  95.3275580  95.8503250  32.8109700  94.7592480  95.4021500  32.1845610
  96.0364580  96.2096030  32.2774850 103.7053200  88.7301690  47.2676470
 104.0298970  87.9991350  47.7934450 103.7409710  88.4115330  46.3657460
  96.5541900  96.5991810  42.1685050  96.9212030  96.1250380  42.9146390
  96.3646960  97.4733380  42.5093390  89.4182390  91.3435500  38.2978520
  89.1329310  90.9791170  39.1357140  89.3561250  90.6115960  37.6841660
  94.3441270  95.6400450  44.4869260  94.0398340  96.5192430  44.7119620
  95.2987730  95.7000240  44.5226700  99.0920980  90.2364760  35.0191890
  98.2785590  89.7377930  34.9437200  98.8982930  91.0763010  34.6028240
 101.8069370  94.6084410  33.3154050 102.6948990  94.9201640  33.1405390
 101.7774460  93.7356660  32.9234630  90.4005000  96.4803190  45.6340620
  90.0419940  97.1457040  46.2213960  90.1059560  95.6486740  46.0053240
  93.6018120  96.9387430  48.5180170  93.3018260  97.0844610  47.6207990
  94.3729360  96.3792720  48.4253560 104.0783640  95.9196250  32.7833910
 103.9947360  96.3510470  31.9330350 104.7977830  96.3794600  33.2160730
 105.1557780  98.3763770  45.8603880 104.4305970  98.9692550  45.6633270
 105.6833240  98.3687310  45.0617250  88.9113050  96.4794450  32.2575220
  89.7807900  96.7619250  32.5411140  88.4203370  97.2930320  32.1424030
  96.0747860  97.8667660  36.3783500  96.5310640  98.6772910  36.6043690
  95.7236070  97.5490800  37.2101990  91.9759640  88.2105310  36.8506020
  91.8474270  88.2023210  37.7990940  91.1521660  88.5488400  36.4997030
  88.9753570  89.9696430  46.3112720  88.2612090  90.1693350  46.9165330
  89.3948610  89.1936000  46.6827520 100.4692350  92.4618740  44.0614170
 100.8373170  91.6413950  44.3893740  99.6090550  92.5220630  44.4769820
 103.8354380  91.4175680  34.8701730 103.2067540  91.5221350  34.1559960
 103.3406300  91.6372460  35.6595610  95.8038410  93.6961630  36.2859610
  95.0954560  94.1647970  36.7273220  96.0882890  93.0383640  36.9204800
  97.4294340  95.1158330  44.2852140  97.9279590  95.5904150  44.9503990
  97.5717290  94.1921850  44.4922170  99.8353840  90.4212290  37.7255400
  99.7121620  90.4398420  36.7764910 100.7838400  90.4691230  37.8453800
  94.0073430  92.0046710  33.6610320  94.8563960  92.4416860  33.5950510
  93.6404700  92.3166970  34.4882380 104.6361200  91.3326290  45.1280530
 104.1334800  92.0731690  45.4674340 105.4517860  91.7210290  44.8117320
 102.9283210  96.5759470  38.5741890 101.9873350  96.5909700  38.7489580
 103.2427280  95.7895430  39.0202190  92.9064850  98.2579070  32.1345850
  93.6728120  98.1460430  32.6971280  92.9839540  97.5617040  31.4822620
  91.6011610  95.6904140  32.8178740  91.6815200  94.7431650  32.9296140
  92.4931360  96.0211020  32.9239400  89.1282410  97.5119060  48.0534910
  89.6321430  96.9326340  48.6251140  88.3889830  97.7959290  48.5911280
  91.1605490  95.6548650  48.9484980  91.2010830  95.3562520  49.8570210
  92.0150990  96.0556260  48.7892500  94.9383880  98.2544200  34.1088490
  95.3600300  98.0884070  34.9519880  95.0634720  97.4444430  33.6143630
  93.1011300  94.2340750  46.9159470  92.5707760  93.7431700  46.2882810
  93.7699370  94.6624950  46.3817400  97.4511520  97.2781810  31.3565590
  97.9717180  96.5630830  30.9906740  98.0979920  97.9167680  31.6566100
 101.9989360  98.7010210  46.6800660 102.4130380  98.8555290  47.5291080
 101.0640360  98.8265430  46.8426440 102.4711530  96.0406370  48.6839810
 103.0532300  95.2858690  48.5960290 102.6473300  96.5713810  47.9071290
  93.5883600  91.2003120  46.9956760  93.4940470  90.5823870  46.2707630
  93.0080990  91.9269410  46.7686670  96.3545040  89.7576360  44.0284150
  95.9062340  89.7800620  43.1829700  95.7210240  89.3595380  44.6254450
  99.0968490  96.3846870  46.0334430  99.2164700  95.7888010  46.7729270
  99.9562490  96.4216560  45.6135730 101.4356390  96.9384060  44.6096940
 100.9091610  97.4626680  44.0062080 101.7787730  97.5711450  45.2406670
  93.8342780  94.3277430  31.0546650  93.6331840  93.4644790  31.4159990
  93.6634830  94.2410790  30.1168250  95.8637260  92.9268220  47.2910250
  96.4536950  92.6184070  47.9788070  95.0457500  92.4547970  47.4470150
 100.6830690  92.5434030  47.5243270  99.9946210  91.8815570  47.4593260
 101.4036710  92.0972300  47.9691730 101.3131090  89.1385660  33.5833530
 101.5933380  88.2953560  33.9392950 100.5396820  89.3708770  34.0972280
  92.6325580  91.4278050  31.0424530  92.9351480  91.4345480  30.1343680
  93.3720170  91.0775910  31.5392190  95.8510510  90.3712670  32.0280730
  95.5032510  89.6936660  31.4483180  96.0523280  89.9102180  32.8424120
 105.6911810  98.3762390  34.1937440 106.4530720  98.9459040  34.2997130
 105.7066180  97.8089590  34.9645750  89.1916150  96.9000320  38.4245100
  88.5364990  96.6311960  37.7804800  90.0294100  96.7904800  37.9747080
 102.1406590  91.6941610  32.6463590 102.5591470  91.5072590  31.8060250
 101.8342650  90.8420660  32.9566520 105.6396320  96.6065750  36.3439390
 105.2639920  95.8393680  35.9120680 104.9099440  96.9888450  36.8314320
  90.2292080  97.2852890  42.9648440  90.5965120  97.1980290  43.8444460
  89.6602900  96.5219440  42.8655300 105.0295940  95.7537270  45.9778910
 104.7982030  95.5250020  45.0776860 105.2900490  96.6736820  45.9323800
  89.7808080  94.1961980  46.8706860  88.8864130  94.1628740  47.2100570
  90.3205630  94.3948770  47.6358110 103.4684010  90.9793700  48.7558610
 104.3454190  90.9877100  49.1392610 103.4804850  90.2424540  48.1450960
  88.4054230  94.1099250  34.3670430  87.5018310  94.3729450  34.1922090
  88.8894850  94.3810420  33.5870390 104.9147280  94.8323240  39.6446630
 105.4384760  94.3385890  39.0136800 105.5006700  94.9673600  40.3894200
 105.0937000  94.9163110  43.1666180 104.1439710  94.8826650  43.2811170
 105.2750010  95.8263220  42.9315950  90.9481440  93.1664790  32.2764810
  91.6573140  92.7448010  31.7912090  90.2321380  93.2340020  31.6448160
  90.5955600  89.2204120  31.3167460  91.3183730  89.7613060  31.6348680
  90.8680120  88.9467540  30.4409000 104.4047250  94.0896590  35.5839040
 104.9006370  93.8567460  36.3687920 104.2063320  93.2508430  35.1676680
  90.2847790  88.4710310  41.2190080  90.9323980  87.9207690  40.7785240
  90.7049630  88.7253460  42.0405890 105.8334410  92.7257540  38.1176720
 105.7233690  92.5713580  39.0558990 106.5942000  92.1978480  37.8752130
 104.1800130  88.6651670  44.5759720 104.8172350  89.2785810  44.9418910
 104.3275020  88.7012330  43.6308950 106.7224680  90.5565460  31.3582860
 107.6473990  90.4246640  31.1501150 106.7000470  90.6358280  32.3119310
 106.7963170  91.3276120  33.9839570 106.0014670  91.2621240  34.5132480
 107.0006450  92.2626760  33.9724920  90.0379790  88.6265980  43.9615400
  89.6894610  89.0829800  44.7273580  89.7067490  87.7323110  44.0437830
  97.5504610  89.8177860  47.4834820  97.4893500  90.4099690  48.2330230
  98.4904990  89.7103820  47.3385080 100.1879170  89.4747920  47.1227110
 100.8019580  89.7927210  46.4608190 100.7328730  88.9896510  47.7422970
  90.7100430  88.1542180  47.2366170  91.2583420  87.9730230  46.4732280
  90.7755740  87.3636290  47.7722480 100.9287210  88.0380060  43.4496400
 100.0547050  88.3715170  43.2469330 100.8197960  87.5653240  44.2748270
 101.8359190  90.2450930  44.8338120 101.5072550  89.4302690  44.4539850
 102.7841490  90.2020740  44.7103810  98.6762030  88.9549900  42.3889310
  97.8933820  89.4295400  42.6686070  98.3824960  88.0504730  42.2802490
 103.2283100  89.6573000  40.4338400 103.6691190  89.6018100  39.5860000
 102.9590690  90.5731010  40.5048580 105.0921670  89.2888240  38.4447220
 105.0310070  88.3449460  38.2978240 105.8713700  89.3968330  38.9900680
  90.0202440  89.2597380  34.9103030  90.7781800  89.3726260  34.3367060
  89.5579610  90.0966580  34.8646460  96.5616250  91.3736650  37.9005340
  95.7490760  90.9993540  37.5601220  97.0657890  90.6181730  38.2026530
 101.0641230  88.0379100  39.1388410 101.6670600  88.6099310  39.6136930
 100.3234220  88.6018540  38.9162310 104.2075830  88.4400660  34.4128690
 104.4026460  89.3384110  34.6796120 103.4205700  88.2087740  34.9061640
  92.3927590  89.7861430  33.4505000  92.9220350  88.9991230  33.3212950
  93.0255910  90.4652620  33.6840530  94.5865430  89.5236570  36.5050390
  93.9568170  88.8223880  36.6720520  94.0470570  90.2840700  36.2883550
  94.7120990  88.8020550  48.9402880  94.4305260  89.3054150  48.1763700
  95.0940690  88.0042300  48.5745010 101.3136450  88.2174130  49.5183350
 101.2001900  88.5368740  50.4134870 102.1306190  88.6186640  49.2220630
 100.2194600  96.2366600  19.8818090 100.1388650  95.3221210  19.6109800
  99.8059020  96.7333670  19.1757800  98.3512640  98.0145620  21.7627360
  97.5754740  97.5346060  22.0525930  99.0025570  97.3351270  21.5883520
  92.3678470  98.3265430  22.6403120  91.5363350  98.0714140  23.0399630
  92.9759450  98.3976200  23.3761040  90.7770420  93.2867320  16.4245510
  89.8887120  93.6283290  16.3225390  91.0611610  93.0867640  15.5326340
  88.7403430  95.8872970  22.3085210  89.3119540  95.1195170  22.3088850
  88.7404970  96.1861730  21.3991820  89.9828300  91.2957330  24.0954140
  89.8031140  90.3983080  24.3756900  89.5808380  91.8429200  24.7701090
  98.8226800  93.4973190  21.9966450  99.1991620  92.6245070  21.8840120
  98.7246310  93.8331890  21.1056890  92.9531810  91.8698820  17.4583890
  93.0598560  92.7702550  17.7652650  92.0424170  91.8216790  17.1678540
 102.6050920  90.9923630  18.9294790 103.4260540  90.5020200  18.9720270
 102.6385000  91.5821290  19.6826630  90.6014970  93.7917830  22.7036480
  91.2825080  94.0556200  23.3223880  90.2863020  92.9518700  23.0374490
  94.7939540  94.8385190  21.7909070  95.3017760  95.3366160  22.4314090
  95.3252780  94.0620390  21.6148430 106.8950470  93.0090380  25.4938420
 106.1902640  93.3972090  24.9753530 107.1608390  93.7040670  26.0959350
  93.0775640  89.4783750  26.0572490  93.0794080  89.9956140  25.2518390
  92.2479950  89.0013930  26.0342420 102.8412400  92.9324010  21.7022330
 102.1367970  93.2208900  22.2825440 103.2024560  93.7424120  21.3421890
  92.7590970  91.1893710  24.0642940  93.1007780  92.0335760  23.7696810
  91.8206780  91.3377450  24.1808280 105.9099320  92.3778800  22.0931540
 104.9624230  92.4117780  22.2246970 106.2349310  93.1917750  22.4780900
  96.4418860  88.6775980  20.3887530  96.7493840  88.1222870  19.6723030
  95.5119560  88.8120440  20.2060520  98.8299620  96.7424810  17.1247650
  97.9028900  96.6762190  17.3536120  98.9824440  97.6804940  17.0102890
  98.8168700  93.0141810  14.1214810  97.8772370  93.1755770  14.2067270
  99.1351960  93.7327490  13.5750800 105.3381460  97.6960330  24.0993840
 104.5100090  97.7653420  23.6243970 105.9331940  98.2814640  23.6309670
 102.8596910  98.3045110  17.6282900 102.2409330  97.9664660  16.9809200
 102.8421360  97.6604870  18.3362090 102.3023470  94.4829650  25.0448710
 101.8894650  95.3083360  25.2988700 101.5699420  93.8974690  24.8525070
  94.4356260  97.2689550  19.9067380  94.0313260  96.5566800  19.4113280
  94.5219380  96.9242790  20.7955420  93.1484880  94.0432760  23.6866420
  93.6999470  94.1528100  22.9119670  93.6628390  94.4170360  24.4021650
 101.0361610  97.5431920  14.6355650 101.4754890  96.7054350  14.4893470
 101.7490030  98.1761320  14.7219790  92.8227610  97.5652120  27.2971760
  92.6835380  98.4374920  27.6659160  91.9408970  97.2224930  27.1519700
 104.6178750  88.7974730  12.9496690 104.3051410  88.8901560  13.8495760
 105.3791220  89.3755760  12.8994120  91.1360890  96.1634530  17.4074030
  91.0158490  96.8896620  16.7955300  90.8261780  95.3937440  16.9301940
 105.8280040  93.5346230  28.9270830 105.2124310  94.0425900  28.3986290
 105.5076460  92.6344560  28.8696770  93.6024550  89.5069600  20.7897700
  93.1592700  90.2879140  20.4582220  94.1609540  89.8299490  21.4968640
  97.8894360  92.3738120  26.3933020  97.4273730  92.5821140  27.2052960
  97.4872470  91.5597470  26.0903690 102.8898870  93.5947070  27.5229680
 102.0392460  93.2952820  27.8438750 102.7300660  93.8389080  26.6113500
  99.9848580  95.0948820  29.6228470 100.3101990  94.2612570  29.2830700
 100.7728910  95.6177340  29.7706800  96.7183370  89.1280300  15.6703530
  96.0937550  89.1240170  16.3956840  96.6313490  88.2611260  15.2739500
  95.6400450  90.0516930  22.6487300  95.9372780  90.9579760  22.5679320
  96.1886010  89.5635710  22.0346870  93.3938770  94.6303170  18.5178950
  93.1679690  94.4140340  19.4225570  92.6131300  95.0631630  18.1724920
 100.6236530  94.6366540  17.1169600 100.0245420  95.3602340  16.9333220
 101.1716140  94.5743320  16.3346050  95.8337980  95.5288750  29.1839220
  95.7381580  94.5883480  29.0339620  96.6769960  95.7503820  28.7887290
  99.2301400  93.2730080  19.1472880  99.6230970  93.5902280  18.3341570
  99.5918250  92.3941960  19.2617400  90.9648520  91.9402420  27.3373000
  90.5711910  92.7877630  27.5445780  90.2766920  91.3028790  27.5281640
  97.5393570  92.0237390  30.4069740  96.8491890  91.8309590  31.0415830
  98.2825870  92.3072030  30.9394040  88.2665570  89.8630880  21.3703080
  87.9778620  90.4333740  22.0828060  89.0111330  89.3835330  21.7334310
  88.4535800  93.8051000  12.5805800  88.3710470  94.7481760  12.7220790
  88.1018860  93.6625910  11.7018150  99.8156540  95.8635830  23.2423660
  99.0837660  96.3722640  23.5913760  99.4180880  95.0465810  22.9412440
  96.2533930  92.5390030  21.6476150  96.2569990  92.0979980  20.7980690
  97.1485050  92.8607360  21.7547970  92.1036310  92.4216520  20.6070360
  91.7636360  92.8991750  21.3637410  91.3413630  91.9681640  20.2471460
  96.3154080  93.5402110  14.6382910  96.4366900  93.4988590  15.5868730
  95.9302590  94.4026260  14.4829640 100.2782450  91.3169510  22.6546600
 100.2955190  91.7678160  23.4988450 100.0298030  90.4175150  22.8680040
  95.3275580  95.8503250  14.0366210  94.7592480  95.4021500  13.4102120
  96.0364580  96.2096030  13.5031360 103.7053200  88.7301690  28.4932980
 104.0298970  87.9991350  29.0190960 103.7409710  88.4115330  27.5913970
  96.5541900  96.5991810  23.3941560  96.9212030  96.1250380  24.1402900
  96.3646960  97.4733380  23.7349900  89.4182390  91.3435500  19.5235030
  89.1329310  90.9791170  20.3613650  89.3561250  90.6115960  18.9098170
  94.3441270  95.6400450  25.7125770  94.0398340  96.5192430  25.9376130
  95.2987730  95.7000240  25.7483210  99.0920980  90.2364760  16.2448400
  98.2785590  89.7377930  16.1693710  98.8982930  91.0763010  15.8284750
 101.8069370  94.6084410  14.5410560 102.6948990  94.9201640  14.3661900
 101.7774460  93.7356660  14.1491140  90.4005000  96.4803190  26.8597130
  90.0419940  97.1457040  27.4470470  90.1059560  95.6486740  27.2309750
  93.6018120  96.9387430  29.7436680  93.3018260  97.0844610  28.8464500
  94.3729360  96.3792720  29.6510070 104.0783640  95.9196250  14.0090420
 103.9947360  96.3510470  13.1586860 104.7977830  96.3794600  14.4417240
 105.1557780  98.3763770  27.0860390 104.4305970  98.9692550  26.8889780
 105.6833240  98.3687310  26.2873760  88.9113050  96.4794450  13.4831730
  89.7807900  96.7619250  13.7667650  88.4203370  97.2930320  13.3680540
  96.0747860  97.8667660  17.6040010  96.5310640  98.6772910  17.8300200
  95.7236070  97.5490800  18.4358500  91.9759640  88.2105310  18.0762530
  91.8474270  88.2023210  19.0247450  91.1521660  88.5488400  17.7253540
  88.9753570  89.9696430  27.5369230  88.2612090  90.1693350  28.1421840
  89.3948610  89.1936000  27.9084030 100.4692350  92.4618740  25.2870680
 100.8373170  91.6413950  25.6150250  99.6090550  92.5220630  25.7026330
 103.8354380  91.4175680  16.0958240 103.2067540  91.5221350  15.3816470
 103.3406300  91.6372460  16.8852120  95.8038410  93.6961630  17.5116120
  95.0954560  94.1647970  17.9529730  96.0882890  93.0383640  18.1461310
  97.4294340  95.1158330  25.5108650  97.9279590  95.5904150  26.1760500
  97.5717290  94.1921850  25.7178680  99.8353840  90.4212290  18.9511910
  99.7121620  90.4398420  18.0021420 100.7838400  90.4691230  19.0710310
  94.0073430  92.0046710  14.8866830  94.8563960  92.4416860  14.8207020
  93.6404700  92.3166970  15.7138890 104.6361200  91.3326290  26.3537040
 104.1334800  92.0731690  26.6930850 105.4517860  91.7210290  26.0373830
 102.9283210  96.5759470  19.7998400 101.9873350  96.5909700  19.9746090
 103.2427280  95.7895430  20.2458700  92.9064850  98.2579070  13.3602360
  93.6728120  98.1460430  13.9227790  92.9839540  97.5617040  12.7079130
  91.6011610  95.6904140  14.0435250  91.6815200  94.7431650  14.1552650
  92.4931360  96.0211020  14.1495910  89.1282410  97.5119060  29.2791420
  89.6321430  96.9326340  29.8507650  88.3889830  97.7959290  29.8167790
  91.1605490  95.6548650  30.1741490  91.2010830  95.3562520  31.0826720
  92.0150990  96.0556260  30.0149010  94.9383880  98.2544200  15.3345000
  95.3600300  98.0884070  16.1776390  95.0634720  97.4444430  14.8400140
  93.1011300  94.2340750  28.1415980  92.5707760  93.7431700  27.5139320
  93.7699370  94.6624950  27.6073910  97.4511520  97.2781810  12.5822100
  97.9717180  96.5630830  12.2163250  98.0979920  97.9167680  12.8822610
 101.9989360  98.7010210  27.9057170 102.4130380  98.8555290  28.7547590
 101.0640360  98.8265430  28.0682950 102.4711530  96.0406370  29.9096320
 103.0532300  95.2858690  29.8216800 102.6473300  96.5713810  29.1327800
  93.5883600  91.2003120  28.2213270  93.4940470  90.5823870  27.4964140
  93.0080990  91.9269410  27.9943180  96.3545040  89.7576360  25.2540660
  95.9062340  89.7800620  24.4086210  95.7210240  89.3595380  25.8510960
  99.0968490  96.3846870  27.2590940  99.2164700  95.7888010  27.9985780
  99.9562490  96.4216560  26.8392240 101.4356390  96.9384060  25.8353450
 100.9091610  97.4626680  25.2318590 101.7787730  97.5711450  26.4663180
  93.8342780  94.3277430  12.2803160  93.6331840  93.4644790  12.6416500
  93.6634830  94.2410790  11.3424760  95.8637260  92.9268220  28.5166760
  96.4536950  92.6184070  29.2044580  95.0457500  92.4547970  28.6726660
 100.6830690  92.5434030  28.7499780  99.9946210  91.8815570  28.6849770
 101.4036710  92.0972300  29.1948240 101.3131090  89.1385660  14.8090040
 101.5933380  88.2953560  15.1649460 100.5396820  89.3708770  15.3228790
  92.6325580  91.4278050  12.2681040  92.9351480  91.4345480  11.3600190
  93.3720170  91.0775910  12.7648700  95.8510510  90.3712670  13.2537240
  95.5032510  89.6936660  12.6739690  96.0523280  89.9102180  14.0680630
 105.6911810  98.3762390  15.4193950 106.4530720  98.9459040  15.5253640
 105.7066180  97.8089590  16.1902260  89.1916150  96.9000320  19.6501610
  88.5364990  96.6311960  19.0061310  90.0294100  96.7904800  19.2003590
 102.1406590  91.6941610  13.8720100 102.5591470  91.5072590  13.0316760
 101.8342650  90.8420660  14.1823030 105.6396320  96.6065750  17.5695900
 105.2639920  95.8393680  17.1377190 104.9099440  96.9888450  18.0570830
  90.2292080  97.2852890  24.1904950  90.5965120  97.1980290  25.0700970
  89.6602900  96.5219440  24.0911810 105.0295940  95.7537270  27.2035420
 104.7982030  95.5250020  26.3033370 105.2900490  96.6736820  27.1580310
  89.7808080  94.1961980  28.0963370  88.8864130  94.1628740  28.4357080
  90.3205630  94.3948770  28.8614620 103.4684010  90.9793700  29.9815120
 104.3454190  90.9877100  30.3649120 103.4804850  90.2424540  29.3707470
  88.4054230  94.1099250  15.5926940  87.5018310  94.3729450  15.4178600
  88.8894850  94.3810420  14.8126900 104.9147280  94.8323240  20.8703140
 105.4384760  94.3385890  20.2393310 105.5006700  94.9673600  21.6150710
 105.0937000  94.9163110  24.3922690 104.1439710  94.8826650  24.5067680
 105.2750010  95.8263220  24.1572460  90.9481440  93.1664790  13.5021320
  91.6573140  92.7448010  13.0168600  90.2321380  93.2340020  12.8704670
  90.5955600  89.2204120  12.5423970  91.3183730  89.7613060  12.8605190
  90.8680120  88.9467540  11.6665510 104.4047250  94.0896590  16.8095550
 104.9006370  93.8567460  17.5944430 104.2063320  93.2508430  16.3933190
  90.2847790  88.4710310  22.4446590  90.9323980  87.9207690  22.0041750
  90.7049630  88.7253460  23.2662400 105.8334410  92.7257540  19.3433230
 105.7233690  92.5713580  20.2815500 106.5942000  92.1978480  19.1008640
 104.1800130  88.6651670  25.8016230 104.8172350  89.2785810  26.1675420
 104.3275020  88.7012330  24.8565460 106.7224680  90.5565460  12.5839370
 107.6473990  90.4246640  12.3757660 106.7000470  90.6358280  13.5375820
 106.7963170  91.3276120  15.2096080 106.0014670  91.2621240  15.7388990
 107.0006450  92.2626760  15.1981430  90.0379790  88.6265980  25.1871910
  89.6894610  89.0829800  25.9530090  89.7067490  87.7323110  25.2694340
  97.5504610  89.8177860  28.7091330  97.4893500  90.4099690  29.4586740
  98.4904990  89.7103820  28.5641590 100.1879170  89.4747920  28.3483620
 100.8019580  89.7927210  27.6864700 100.7328730  88.9896510  28.9679480
  90.7100430  88.1542180  28.4622680  91.2583420  87.9730230  27.6988790
  90.7755740  87.3636290  28.9978990 100.9287210  88.0380060  24.6752910
 100.0547050  88.3715170  24.4725840 100.8197960  87.5653240  25.5004780
 101.8359190  90.2450930  26.0594630 101.5072550  89.4302690  25.6796360
 102.7841490  90.2020740  25.9360320  98.6762030  88.9549900  23.6145820
  97.8933820  89.4295400  23.8942580  98.3824960  88.0504730  23.5059000
 103.2283100  89.6573000  21.6594910 103.6691190  89.6018100  20.8116510
 102.9590690  90.5731010  21.7305090 105.0921670  89.2888240  19.6703730
 105.0310070  88.3449460  19.5234750 105.8713700  89.3968330  20.2157190
  90.0202440  89.2597380  16.1359540  90.7781800  89.3726260  15.5623570
  89.5579610  90.0966580  16.0902970  96.5616250  91.3736650  19.1261850
  95.7490760  90.9993540  18.7857730  97.0657890  90.6181730  19.4283040
 101.0641230  88.0379100  20.3644920 101.6670600  88.6099310  20.8393440
 100.3234220  88.6018540  20.1418820 104.2075830  88.4400660  15.6385200
 104.4026460  89.3384110  15.9052630 103.4205700  88.2087740  16.1318150
  92.3927590  89.7861430  14.6761510  92.9220350  88.9991230  14.5469460
  93.0255910  90.4652620  14.9097040  94.5865430  89.5236570  17.7306900
  93.9568170  88.8223880  17.8977030  94.0470570  90.2840700  17.5140060
  94.7120990  88.8020550  30.1659390  94.4305260  89.3054150  29.4020210
  95.0940690  88.0042300  29.8001520 101.3136450  88.2174130  30.7439860
 101.2001900  88.5368740  31.6391380 102.1306190  88.6186640  30.4477140
  98.3512640  98.0145620   2.9883870  97.5754740  97.5346060   3.2782440
  99.0025570  97.3351270   2.8140030  92.3678470  98.3265430   3.8659630
  91.5363350  98.0714140   4.2656140  92.9759450  98.3976200   4.6017550
  88.7403430  95.8872970   3.5341720  89.3119540  95.1195170   3.5345360
  88.7404970  96.1861730   2.6248330  89.9828300  91.2957330   5.3210650
  89.8031140  90.3983080   5.6013410  89.5808380  91.8429200   5.9957600
  98.8226800  93.4973190   3.2222960  99.1991620  92.6245070   3.1096630
  98.7246310  93.8331890   2.3313400  90.6014970  93.7917830   3.9292990
  91.2825080  94.0556200   4.5480390  90.2863020  92.9518700   4.2631000
  94.7939540  94.8385190   3.0165580  95.3017760  95.3366160   3.6570600
  95.3252780  94.0620390   2.8404940 106.8950470  93.0090380   6.7194930
 106.1902640  93.3972090   6.2010040 107.1608390  93.7040670   7.3215860
  93.0775640  89.4783750   7.2829000  93.0794080  89.9956140   6.4774900
  92.2479950  89.0013930   7.2598930 102.8412400  92.9324010   2.9278840
 102.1367970  93.2208900   3.5081950 103.2024560  93.7424120   2.5678400
  92.7590970  91.1893710   5.2899450  93.1007780  92.0335760   4.9953320
  91.8206780  91.3377450   5.4064790 105.9099320  92.3778800   3.3188050
 104.9624230  92.4117780   3.4503480 106.2349310  93.1917750   3.7037410
 105.3381460  97.6960330   5.3250350 104.5100090  97.7653420   4.8500480
 105.9331940  98.2814640   4.8566180 102.3023470  94.4829650   6.2705220
 101.8894650  95.3083360   6.5245210 101.5699420  93.8974690   6.0781580
  93.1484880  94.0432760   4.9122930  93.6999470  94.1528100   4.1376180
  93.6628390  94.4170360   5.6278160  92.8227610  97.5652120   8.5228270
  92.6835380  98.4374920   8.8915670  91.9408970  97.2224930   8.3776210
 105.8280040  93.5346230  10.1527340 105.2124310  94.0425900   9.6242800
 105.5076460  92.6344560  10.0953280  93.6024550  89.5069600   2.0154210
  93.1592700  90.2879140   1.6838730  94.1609540  89.8299490   2.7225150
  97.8894360  92.3738120   7.6189530  97.4273730  92.5821140   8.4309470
  97.4872470  91.5597470   7.3160200 102.8898870  93.5947070   8.7486190
 102.0392460  93.2952820   9.0695260 102.7300660  93.8389080   7.8370010
  99.9848580  95.0948820  10.8484980 100.3101990  94.2612570  10.5087210
 100.7728910  95.6177340  10.9963310  95.6400450  90.0516930   3.8743810
  95.9372780  90.9579760   3.7935830  96.1886010  89.5635710   3.2603380
  95.8337980  95.5288750  10.4095730  95.7381580  94.5883480  10.2596130
  96.6769960  95.7503820  10.0143800  90.9648520  91.9402420   8.5629510
  90.5711910  92.7877630   8.7702290  90.2766920  91.3028790   8.7538150
  97.5393570  92.0237390  11.6326250  96.8491890  91.8309590  12.2672340
  98.2825870  92.3072030  12.1650550  88.2665570  89.8630880   2.5959590
  87.9778620  90.4333740   3.3084570  89.0111330  89.3835330   2.9590820
  99.8156540  95.8635830   4.4680170  99.0837660  96.3722640   4.8170270
  99.4180880  95.0465810   4.1668950  96.2533930  92.5390030   2.8732660
  96.2569990  92.0979980   2.0237200  97.1485050  92.8607360   2.9804480
  92.1036310  92.4216520   1.8326870  91.7636360  92.8991750   2.5893920
  91.3413630  91.9681640   1.4727970 100.2782450  91.3169510   3.8803110
 100.2955190  91.7678160   4.7244960 100.0298030  90.4175150   4.0936550
 103.7053200  88.7301690   9.7189490 104.0298970  87.9991350  10.2447470
 103.7409710  88.4115330   8.8170480  96.5541900  96.5991810   4.6198070
  96.9212030  96.1250380   5.3659410  96.3646960  97.4733380   4.9606410
  94.3441270  95.6400450   6.9382280  94.0398340  96.5192430   7.1632640
  95.2987730  95.7000240   6.9739720  90.4005000  96.4803190   8.0853640
  90.0419940  97.1457040   8.6726980  90.1059560  95.6486740   8.4566260
  93.6018120  96.9387430  10.9693190  93.3018260  97.0844610  10.0721010
  94.3729360  96.3792720  10.8766580 105.1557780  98.3763770   8.3116900
 104.4305970  98.9692550   8.1146290 105.6833240  98.3687310   7.5130270
  88.9753570  89.9696430   8.7625740  88.2612090  90.1693350   9.3678350
  89.3948610  89.1936000   9.1340540 100.4692350  92.4618740   6.5127190
 100.8373170  91.6413950   6.8406760  99.6090550  92.5220630   6.9282840
  97.4294340  95.1158330   6.7365160  97.9279590  95.5904150   7.4017010
  97.5717290  94.1921850   6.9435190 104.6361200  91.3326290   7.5793550
 104.1334800  92.0731690   7.9187360 105.4517860  91.7210290   7.2630340
  89.1282410  97.5119060  10.5047930  89.6321430  96.9326340  11.0764160
  88.3889830  97.7959290  11.0424300  91.1605490  95.6548650  11.3998000
  91.2010830  95.3562520  12.3083230  92.0150990  96.0556260  11.2405520
  93.1011300  94.2340750   9.3672490  92.5707760  93.7431700   8.7395830
  93.7699370  94.6624950   8.8330420 101.9989360  98.7010210   9.1313680
 102.4130380  98.8555290   9.9804100 101.0640360  98.8265430   9.2939460
 102.4711530  96.0406370  11.1352830 103.0532300  95.2858690  11.0473310
 102.6473300  96.5713810  10.3584310  93.5883600  91.2003120   9.4469780
  93.4940470  90.5823870   8.7220650  93.0080990  91.9269410   9.2199690
  96.3545040  89.7576360   6.4797170  95.9062340  89.7800620   5.6342720
  95.7210240  89.3595380   7.0767470  99.0968490  96.3846870   8.4847450
  99.2164700  95.7888010   9.2242290  99.9562490  96.4216560   8.0648750
 101.4356390  96.9384060   7.0609960 100.9091610  97.4626680   6.4575100
 101.7787730  97.5711450   7.6919690  95.8637260  92.9268220   9.7423270
  96.4536950  92.6184070  10.4301090  95.0457500  92.4547970   9.8983170
 100.6830690  92.5434030   9.9756290  99.9946210  91.8815570   9.9106280
 101.4036710  92.0972300  10.4204750  90.2292080  97.2852890   5.4161460
  90.5965120  97.1980290   6.2957480  89.6602900  96.5219440   5.3168320
 105.0295940  95.7537270   8.4291930 104.7982030  95.5250020   7.5289880
 105.2900490  96.6736820   8.3836820  89.7808080  94.1961980   9.3219880
  88.8864130  94.1628740   9.6613590  90.3205630  94.3948770  10.0871130
 103.4684010  90.9793700  11.2071630 104.3454190  90.9877100  11.5905630
 103.4804850  90.2424540  10.5963980 104.9147280  94.8323240   2.0959650
 105.4384760  94.3385890   1.4649820 105.5006700  94.9673600   2.8407220
 105.0937000  94.9163110   5.6179200 104.1439710  94.8826650   5.7324190
 105.2750010  95.8263220   5.3828970  90.2847790  88.4710310   3.6703100
  90.9323980  87.9207690   3.2298260  90.7049630  88.7253460   4.4918910
 104.1800130  88.6651670   7.0272740 104.8172350  89.2785810   7.3931930
 104.3275020  88.7012330   6.0821970  90.0379790  88.6265980   6.4128420
  89.6894610  89.0829800   7.1786600  89.7067490  87.7323110   6.4950850
  97.5504610  89.8177860   9.9347840  97.4893500  90.4099690  10.6843250
  98.4904990  89.7103820   9.7898100 100.1879170  89.4747920   9.5740130
 100.8019580  89.7927210   8.9121210 100.7328730  88.9896510  10.1935990
  90.7100430  88.1542180   9.6879190  91.2583420  87.9730230   8.9245300
  90.7755740  87.3636290  10.2235500 100.9287210  88.0380060   5.9009420
 100.0547050  88.3715170   5.6982350 100.8197960  87.5653240   6.7261290
 101.8359190  90.2450930   7.2851140 101.5072550  89.4302690   6.9052870
 102.7841490  90.2020740   7.1616830  98.6762030  88.9549900   4.8402330
  97.8933820  89.4295400   5.1199090  98.3824960  88.0504730   4.7315510
 103.2283100  89.6573000   2.8851420 103.6691190  89.6018100   2.0373020
 102.9590690  90.5731010   2.9561600  94.7120990  88.8020550  11.3915900
  94.4305260  89.3054150  10.6276720  95.0940690  88.0042300  11.0258030
 101.3136450  88.2174130  11.9696370 101.2001900  88.5368740  12.8647890
 102.1306190  88.6186640  11.6733650 100.2194600  77.4623110  57.4305070
 100.1388650  76.5477720  57.1596780  99.8059020  77.9590180  56.7244780
  98.3512640  79.2402130  59.3114340  97.5754740  78.7602570  59.6012910
  99.0025570  78.5607780  59.1370500 102.3720070  83.6462320  58.0913470
 101.9101600  82.8749560  58.4200640 103.1845620  83.6728390  58.5965920
  90.7770420  74.5123830  53.9732490  89.8887120  74.8539800  53.8712370
  91.0611610  74.3124150  53.0813320  88.7403430  77.1129480  59.8572190
  89.3119540  76.3451680  59.8575830  88.7404970  77.4118240  58.9478800
  98.5983380  85.9320330  57.7117460  97.9794820  86.3877830  57.1411900
  99.4535160  86.0871790  57.3107160  97.7921630  81.9159320  59.3184500
  97.7229910  80.9749260  59.1573630  98.5541490  82.0060730  59.8907070
  98.8226800  74.7229700  59.5453430  99.1991620  73.8501580  59.4327100
  98.7246310  75.0588400  58.6543870  92.9531810  73.0955330  55.0070870
  93.0598560  73.9959060  55.3139630  92.0424170  73.0473300  54.7165520
 102.6050920  72.2180140  56.4781770 103.4260540  71.7276710  56.5207250
 102.6385000  72.8077800  57.2313610  94.7939540  76.0641700  59.3396050
  95.3017760  76.5622670  59.9801070  95.3252780  75.2876900  59.1635410
  99.4646730  80.8159570  55.1049370  98.8464000  81.2809020  54.5412090
  99.9769980  81.5087050  55.5218880 102.8412400  74.1580520  59.2509310
 102.1367970  74.4465410  59.8312420 103.2024560  74.9680630  58.8908870
  88.8329930  81.5016100  52.4789000  88.4557910  81.9903200  51.7473900
  89.0903000  82.1741380  53.1095530 105.9099320  73.6035310  59.6418520
 104.9624230  73.6374290  59.7733950 106.2349310  74.4174260  60.0267880
  96.4418860  69.9032490  57.9374510  96.7493840  69.3479380  57.2210010
  95.5119560  70.0376950  57.7547500 101.9933920  85.6199780  60.2281970
 102.0061080  85.2162070  59.3604230 101.4409140  86.3947070  60.1243400
 103.2879340  82.3416000  55.3172140 103.1775670  81.3990330  55.4421560
 103.2847590  82.7031640  56.2034900  98.8299620  77.9681320  54.6734630
  97.9028900  77.9018700  54.9023100  98.9824440  78.9061450  54.5589870
  98.8168700  74.2398320  51.6701790  97.8772370  74.4012280  51.7554250
  99.1351960  74.9584000  51.1237780 102.8596910  79.5301620  55.1769880
 102.2409330  79.1921170  54.5296180 102.8421360  78.8861380  55.8849070
  94.4356260  78.4946060  57.4554360  94.0313260  77.7823310  56.9600260
  94.5219380  78.1499300  58.3442400  94.9037960  82.1813620  59.6193570
  94.6066250  81.5759090  58.9401350  95.8537780  82.2190930  59.5082930
 101.0361610  78.7688430  52.1842630 101.4754890  77.9310860  52.0380450
 101.7490030  79.4017830  52.2706770  99.1456990  83.7084500  56.1523870
  99.5852900  84.4508830  55.7379260  99.0843880  83.9511070  57.0762830
 104.6178750  70.0231240  50.4983670 104.3051410  70.1158070  51.3982740
 105.3791220  70.6012270  50.4481100  91.1360890  77.3891040  54.9561010
  91.0158490  78.1153130  54.3442280  90.8261780  76.6193950  54.4788920
  90.0193890  82.2606370  57.1735830  89.6121970  82.4020960  56.3189430
  90.9106900  81.9766530  56.9707040 101.8127170  86.6953620  53.5086880
 101.6528310  86.4056560  54.4068710 101.6473880  85.9193750  52.9732110
  94.2915550  86.4752150  55.2858500  94.1158030  85.5587690  55.0726300
  93.4371290  86.8339440  55.5256300 101.5153300  84.2041180  52.0684880
 100.8218460  84.2018470  51.4087160 102.2576160  83.7800500  51.6379050
 101.0803230  85.8303890  56.1433370 101.5360180  85.0493270  56.4571990
 101.4195750  86.5410710  56.6874550  93.6024550  70.7326110  58.3384680
  93.1592700  71.5135650  58.0069200  94.1609540  71.0556000  59.0455620
  96.7183370  70.3536810  53.2190510  96.0937550  70.3496680  53.9443820
  96.6313490  69.4867770  52.8226480  95.6400450  71.2773440  60.1974280
  95.9372780  72.1836270  60.1166300  96.1886010  70.7892220  59.5833850
  93.3938770  75.8559680  56.0665930  93.1679690  75.6396850  56.9712550
  92.6131300  76.2888140  55.7211900 100.6236530  75.8623050  54.6656580
 100.0245420  76.5858850  54.4820200 101.1716140  75.7999830  53.8833030
  99.2301400  74.4986590  56.6959860  99.6230970  74.8158790  55.8828550
  99.5918250  73.6198470  56.8104380  88.2665570  71.0887390  58.9190060
  87.9778620  71.6590250  59.6315040  89.0111330  70.6091840  59.2821290
  88.4535800  75.0307510  50.1292780  88.3710470  75.9738270  50.2707770
  88.1018860  74.8882420  49.2505130  96.2533930  73.7646540  59.1963130
  96.2569990  73.3236490  58.3467670  97.1485050  74.0863870  59.3034950
  92.1036310  73.6473030  58.1557340  91.7636360  74.1248260  58.9124390
  91.3413630  73.1938150  57.7958440  96.3154080  74.7658620  52.1869890
  96.4366900  74.7245100  53.1355710  95.9302590  75.6282770  52.0316620
  95.3275580  77.0759760  51.5853190  94.7592480  76.6278010  50.9589100
  96.0364580  77.4352540  51.0518340  89.4182390  72.5692010  57.0722010
  89.1329310  72.2047680  57.9100630  89.3561250  71.8372470  56.4585150
  92.8723060  81.0717950  53.8579600  92.0985320  80.5315570  53.6978320
  93.6017690  80.5524560  53.5197360 103.6311040  80.0683310  59.6505990
 104.3510160  80.5638600  59.2602100 103.4292860  79.3901200  59.0059860
  99.0920980  71.4621270  53.7935380  98.2785590  70.9634440  53.7180690
  98.8982930  72.3019520  53.3771730 101.8069370  75.8340920  52.0897540
 102.6948990  76.1458150  51.9148880 101.7774460  74.9613170  51.6978120
  92.9160460  80.7398330  57.4958410  93.4339130  79.9366590  57.4415300
  92.4644480  80.6777470  58.3375240  97.8029960  82.0064610  52.7685710
  98.1445660  82.7506840  52.2729030  96.9742670  82.3195730  53.1310540
 104.0783640  77.1452760  51.5577400 103.9947360  77.5766980  50.7073840
 104.7977830  77.6051110  51.9904220 105.1070890  83.9995020  54.2859530
 104.4647050  83.3450640  54.5603250 104.7201550  84.4050110  53.5100200
 100.6857370  81.3280450  58.1331220 101.0381190  80.7308580  57.4732590
  99.8019700  81.0024680  58.3039470  96.7720650  82.0878140  55.5401630
  97.4591780  82.6347350  55.9209220  95.9853070  82.6318870  55.5751240
  88.9113050  77.7050960  51.0318710  89.7807900  77.9875760  51.3154630
  88.4203370  78.5186830  50.9167520  96.0747860  79.0924170  55.1526990
  96.5310640  79.9029420  55.3787180  95.7236070  78.7747310  55.9845480
  91.9759640  69.4361820  55.6249510  91.8474270  69.4279720  56.5734430
  91.1521660  69.7744910  55.2740520 103.4968270  82.8911480  50.8235880
 103.2705850  82.1741920  51.4160520 103.1064470  82.6423920  49.9857630
  89.2784300  86.9178340  51.5980340  89.6381940  87.5167680  50.9437610
  89.1376640  87.4638230  52.3715370 103.0784520  80.8083420  52.4850040
 102.7906220  81.2696110  53.2727920 103.8736690  80.3481190  52.7534260
  95.2952920  84.3009540  52.4154010  95.2863020  85.0339230  51.7998520
  94.3751280  84.0541120  52.5080970  90.8959560  79.5224430  53.1600770
  90.2887510  80.2623330  53.1696070  91.3708910  79.6123790  52.3338970
 103.8354380  72.6432190  53.6445220 103.2067540  72.7477860  52.9303450
 103.3406300  72.8628970  54.4339100  98.2812520  84.3637780  51.0779200
  98.3824500  84.1601770  50.1481180  97.3814260  84.1096060  51.2826980
  95.8038410  74.9218140  55.0603100  95.0954560  75.3904480  55.5016710
  96.0882890  74.2640150  55.6948290  99.8353840  71.6468800  56.4998890
  99.7121620  71.6654930  55.5508400 100.7838400  71.6947740  56.6197290
  96.9230630  86.8824100  55.7726870  97.1772130  86.8445490  54.8506240
  95.9743110  86.7557430  55.7655120  94.0073430  73.2303220  52.4353810
  94.8563960  73.6673370  52.3694000  93.6404700  73.5423480  53.2625870
 102.9283210  77.8015980  57.3485380 101.9873350  77.8166210  57.5233070
 103.2427280  77.0151940  57.7945680  92.9064850  79.4835580  50.9089340
  93.6728120  79.3716940  51.4714770  92.9839540  78.7873550  50.2566110
  91.6011610  76.9160650  51.5922230  91.6815200  75.9688160  51.7039630
  92.4931360  77.2467530  51.6982890 104.9308790  84.9724830  59.0239640
 105.0556210  85.7956000  59.4963450 105.7974350  84.7615560  58.6763790
  92.4026320  87.0656040  58.6956770  93.1388800  86.5171500  58.9665340
  92.7867240  87.9312050  58.5562760  89.2871800  83.1329610  54.5698280
  88.3611580  83.3750750  54.5603690  89.7528230  83.9603870  54.4483030
  95.5128630  86.2386350  50.5182340  96.3057240  86.5275180  50.0664130
  94.9932980  85.8078520  49.8394820 104.5658800  85.4656480  51.9419080
 104.2800310  85.0521620  51.1273260 104.3678350  86.3944190  51.8219600
  96.0306030  81.4589760  50.3824690  95.9256670  80.8442110  51.1086070
  95.8630250  80.9355650  49.5987700  99.2708760  80.5209790  50.9866680
  98.7218860  80.9679090  51.6309420  99.8928020  80.0159040  51.5104350
  94.9383880  79.4800710  52.8831980  95.3600300  79.3140580  53.7263370
  95.0634720  78.6700940  52.3887120  97.4511520  78.5038320  50.1309080
  97.9717180  77.7887340  49.7650230  98.0979920  79.1424190  50.4309590
  93.8342780  75.5533940  49.8290140  93.6331840  74.6901300  50.1903480
  93.6634830  75.4667300  48.8911740 101.3131090  70.3642170  52.3577020
 101.5933380  69.5210070  52.7136440 100.5396820  70.5965280  52.8715770
  92.6325580  72.6534560  49.8168020  92.9351480  72.6601990  48.9087170
  93.3720170  72.3032420  50.3135680  95.8510510  71.5969180  50.8024220
  95.5032510  70.9193170  50.2226670  96.0523280  71.1358690  51.6167610
  98.0159550  86.5849930  52.4210820  98.9110340  86.9234900  52.4429580
  98.0477180  85.8629340  51.7935100  91.6555710  81.9576980  50.6497820
  92.0930580  82.5006650  51.3055400  92.1403440  81.1323930  50.6594160
  88.8701510  84.7466010  58.1018080  89.2004520  83.8787070  57.8696720
  89.2992510  84.9524530  58.9323040  93.4663430  83.0775020  55.7620050
  93.1658970  82.9539990  56.6623960  93.3600920  82.2183610  55.3535780
 106.2355350  82.8571420  50.4646730 105.4048310  82.9248070  50.9353960
 106.4127180  83.7475540  50.1613590 105.6911810  79.6018900  52.9680930
 106.4530720  80.1715550  53.0740620 105.7066180  79.0346100  53.7389240
  89.1916150  78.1256830  57.1988590  88.5364990  77.8568470  56.5548290
  90.0294100  78.0161310  56.7490570 106.6971780  80.4569000  57.8122860
 107.0680610  79.6736320  57.4058830 107.3373710  81.1458100  57.6340160
 105.7430980  79.8953270  50.1253450 106.0179820  80.8032150  49.9972670
 105.5541720  79.8315800  51.0615440 102.1406590  72.9198120  51.4207080
 102.5591470  72.7329100  50.5803740 101.8342650  72.0677170  51.7310010
 105.6396320  77.8322260  55.1182880 105.2639920  77.0650190  54.6864170
 104.9099440  78.2144960  55.6057810  88.4054230  75.3355760  53.1413920
  87.5018310  75.5985960  52.9665580  88.8894850  75.6066930  52.3613880
 104.9147280  76.0579750  58.4190120 105.4384760  75.5642400  57.7880290
 105.5006700  76.1930110  59.1637690  90.9481440  74.3921300  51.0508300
  91.6573140  73.9704520  50.5655580  90.2321380  74.4596530  50.4191650
  90.5955600  70.4460630  50.0910950  91.3183730  70.9869570  50.4092170
  90.8680120  70.1724050  49.2152490 104.4047250  75.3153100  54.3582530
 104.9006370  75.0823970  55.1431410 104.2063320  74.4764940  53.9420170
 105.8334410  73.9514050  56.8920210 105.7233690  73.7970090  57.8302480
 106.5942000  73.4234990  56.6495620 106.7224680  71.7821970  50.1326350
 107.6473990  71.6503150  49.9244640 106.7000470  71.8614790  51.0862800
 106.7963170  72.5532630  52.7583060 106.0014670  72.4877750  53.2875970
 107.0006450  73.4883270  52.7468410 103.7381590  86.5924180  56.7521450
 104.3340660  86.2708750  56.0755870 103.9959740  86.1196000  57.5434720
  94.7189520  85.5507720  59.7567310  95.2354540  84.9395080  59.2315570
  95.3686900  86.0536500  60.2478320 103.2283100  70.8829510  59.2081890
 103.6691190  70.8274610  58.3603490 102.9590690  71.7987520  59.2792070
 105.0921670  70.5144750  57.2190710 105.0310070  69.5705970  57.0721730
 105.8713700  70.6224840  57.7644170  89.3974420  86.6537110  56.1814660
  89.2296460  86.0207790  56.8796550  88.5308930  86.8596510  55.8308850
  90.0202440  70.4853890  53.6846520  90.7781800  70.5982770  53.1110550
  89.5579610  71.3223090  53.6389950  96.5616250  72.5993160  56.6748830
  95.7490760  72.2250050  56.3344710  97.0657890  71.8438240  56.9770020
 101.0641230  69.2635610  57.9131900 101.6670600  69.8355820  58.3880420
 100.3234220  69.8275050  57.6905800 104.2075830  69.6657170  53.1872180
 104.4026460  70.5640620  53.4539610 103.4205700  69.4344250  53.6805130
  91.0037120  85.3470340  53.6264800  90.4784740  85.7278370  52.9226760
  90.9281700  85.9721110  54.3474510  92.3927590  71.0117940  52.2248490
  92.9220350  70.2247740  52.0956440  93.0255910  71.6909130  52.4584020
  94.5865430  70.7493080  55.2793880  93.9568170  70.0480390  55.4464010
  94.0470570  71.5097210  55.0627040 105.7602440  86.9057880  54.9478740
 105.9354630  86.2195620  54.3039660 105.0624010  87.4304930  54.5555410
  93.6030090  87.2952720  52.5014050  94.3348910  87.0112000  51.9537940
  93.8623760  87.0566000  53.3913430  92.7644880  83.4117450  52.5060380
  92.1353760  83.8802550  53.0546210  92.8792710  82.5666670  52.9406570
 100.2194600  77.4623110  38.6561580 100.1388650  76.5477720  38.3853290
  99.8059020  77.9590180  37.9501290  98.3512640  79.2402130  40.5370850
  97.5754740  78.7602570  40.8269420  99.0025570  78.5607780  40.3627010
  92.3678470  79.5521940  41.4146610  91.5363350  79.2970650  41.8143120
  92.9759450  79.6232710  42.1504530 102.3720070  83.6462320  39.3169980
 101.9101600  82.8749560  39.6457150 103.1845620  83.6728390  39.8222430
  92.3479730  83.5862030  41.6104630  92.6507770  82.6959770  41.4314850
  93.0923320  84.1432250  41.3826880  90.7770420  74.5123830  35.1989000
  89.8887120  74.8539800  35.0968880  91.0611610  74.3124150  34.3069830
  88.7403430  77.1129480  41.0828700  89.3119540  76.3451680  41.0832340
  88.7404970  77.4118240  40.1735310  98.5983380  85.9320330  38.9373970
  97.9794820  86.3877830  38.3668410  99.4535160  86.0871790  38.5363670
  97.7921630  81.9159320  40.5441010  97.7229910  80.9749260  40.3830140
  98.5541490  82.0060730  41.1163580  98.8226800  74.7229700  40.7709940
  99.1991620  73.8501580  40.6583610  98.7246310  75.0588400  39.8800380
 106.8950470  74.2346890  44.2681910 106.1902640  74.6228600  43.7497020
 107.1608390  74.9297180  44.8702840  93.0775640  70.7040260  44.8315980
  93.0794080  71.2212650  44.0261880  92.2479950  70.2270440  44.8085910
  99.4646730  80.8159570  36.3305880  98.8464000  81.2809020  35.7668600
  99.9769980  81.5087050  36.7475390  94.3278490  80.3435440  43.0089480
  93.9947870  80.9704360  43.6510550  94.5045170  80.8697320  42.2291150
 102.8412400  74.1580520  40.4765820 102.1367970  74.4465410  41.0568930
 103.2024560  74.9680630  40.1165380  93.5397590  82.3116240  44.8238660
  94.1571590  82.9867320  44.5423110  92.6790710  82.7204220  44.7326160
  88.8329930  81.5016100  33.7045510  88.4557910  81.9903200  32.9730410
  89.0903000  82.1741380  34.3352040 104.4575180  83.7755650  42.7393300
 103.7738700  84.4454760  42.7309970 104.9969470  83.9736300  41.9738160
 105.9099320  73.6035310  40.8675030 104.9624230  73.6374290  40.9990460
 106.2349310  74.4174260  41.2524390 101.9933920  85.6199780  41.4538480
 102.0061080  85.2162070  40.5860740 101.4409140  86.3947070  41.3499910
 103.2879340  82.3416000  36.5428650 103.1775670  81.3990330  36.6678070
 103.2847590  82.7031640  37.4291410 101.3919360  80.5229620  42.7821090
 101.8088150  80.3089730  41.9474550 102.1159180  80.7802410  43.3529710
  98.8299620  77.9681320  35.8991140  97.9028900  77.9018700  36.1279610
  98.9824440  78.9061450  35.7846380  98.8168700  74.2398320  32.8958300
  97.8772370  74.4012280  32.9810760  99.1351960  74.9584000  32.3494290
 105.3381460  78.9216840  42.8737330 104.5100090  78.9909930  42.3987460
 105.9331940  79.5071150  42.4053160 102.8596910  79.5301620  36.4026390
 102.2409330  79.1921170  35.7552690 102.8421360  78.8861380  37.1105580
 102.3023470  75.7086160  43.8192200 101.8894650  76.5339870  44.0732190
 101.5699420  75.1231200  43.6268560  94.4356260  78.4946060  38.6810870
  94.0313260  77.7823310  38.1856770  94.5219380  78.1499300  39.5698910
  94.9037960  82.1813620  40.8450080  94.6066250  81.5759090  40.1657860
  95.8537780  82.2190930  40.7339440 102.9923570  85.7545490  44.5073180
 102.5154130  86.5617680  44.3145790 102.3085360  85.1023820  44.6599390
  93.9956390  81.9195310  47.4957880  93.0984920  82.1435280  47.7431280
  94.0209260  82.0430250  46.5469280 101.0361610  78.7688430  33.4099140
 101.4754890  77.9310860  33.2636960 101.7490030  79.4017830  33.4963280
  92.8227610  78.7908630  46.0715250  92.6835380  79.6631430  46.4402650
  91.9408970  78.4481440  45.9263190  99.1456990  83.7084500  37.3780380
  99.5852900  84.4508830  36.9635770  99.0843880  83.9511070  38.3019340
  94.6207960  84.7330330  48.2800400  94.5923390  85.1373280  47.4128830
  94.4572930  83.8040690  48.1172000 104.6178750  70.0231240  31.7240180
 104.3051410  70.1158070  32.6239250 105.3791220  70.6012270  31.6737610
  91.1360890  77.3891040  36.1817520  91.0158490  78.1153130  35.5698790
  90.8261780  76.6193950  35.7045430 106.5722780  85.5157430  49.5764570
 107.0482500  85.9940320  50.2553650 107.1929940  85.4474920  48.8510070
  88.7746260  80.5606180  41.9886160  88.8526680  80.6954950  41.0441880
  89.3887940  79.8522070  42.1814280  90.0193890  82.2606370  38.3992340
  89.6121970  82.4020960  37.5445940  90.9106900  81.9766530  38.1963550
 105.9756030  82.7070280  46.7364580 106.1019090  82.4682160  45.8181760
 106.0177410  81.8754820  47.2086660  99.8372770  86.4098280  45.3059390
 100.3517440  86.3206290  46.1081820  98.9941850  86.7557980  45.5987300
 101.8127170  86.6953620  34.7343390 101.6528310  86.4056560  35.6325220
 101.6473880  85.9193750  34.1988620  94.2915550  86.4752150  36.5115010
  94.1158030  85.5587690  36.2982810  93.4371290  86.8339440  36.7512810
 101.5153300  84.2041180  33.2941390 100.8218460  84.2018470  32.6343670
 102.2576160  83.7800500  32.8635560 101.0803230  85.8303890  37.3689880
 101.5360180  85.0493270  37.6828500 101.4195750  86.5410710  37.9131060
 105.8280040  74.7602740  47.7014320 105.2124310  75.2682410  47.1729780
 105.5076460  73.8601070  47.6440260  88.8305780  81.6020350  44.5280620
  88.9936820  81.1325710  43.7099990  89.2958230  81.0943910  45.1929460
  97.8894360  73.5994630  45.1676510  97.4273730  73.8077650  45.9796450
  97.4872470  72.7853980  44.8647180 102.8898870  74.8203580  46.2973170
 102.0392460  74.5209330  46.6182240 102.7300660  75.0645590  45.3856990
  99.9848580  76.3205330  48.3971960 100.3101990  75.4869080  48.0574190
 100.7728910  76.8433850  48.5450290  96.7183370  70.3536810  34.4447020
  96.0937550  70.3496680  35.1700330  96.6313490  69.4867770  34.0482990
 100.6236530  75.8623050  35.8913090 100.0245420  76.5858850  35.7076710
 101.1716140  75.7999830  35.1089540  95.8337980  76.7545260  47.9582710
  95.7381580  75.8139990  47.8083110  96.6769960  76.9760330  47.5630780
  90.9648520  73.1658930  46.1116490  90.5711910  74.0134140  46.3189270
  90.2766920  72.5285300  46.3025130  97.5393570  73.2493900  49.1813230
  96.8491890  73.0566100  49.8159320  98.2825870  73.5328540  49.7137530
  88.4535800  75.0307510  31.3549290  88.3710470  75.9738270  31.4964280
  88.1018860  74.8882420  30.4761640  99.8156540  77.0892340  42.0167150
  99.0837660  77.5979150  42.3657250  99.4180880  76.2722320  41.7155930
  96.3154080  74.7658620  33.4126400  96.4366900  74.7245100  34.3612220
  95.9302590  75.6282770  33.2573130 100.2782450  72.5426020  41.4290090
 100.2955190  72.9934670  42.2731940 100.0298030  71.6431660  41.6423530
  95.3275580  77.0759760  32.8109700  94.7592480  76.6278010  32.1845610
  96.0364580  77.4352540  32.2774850 103.7053200  69.9558200  47.2676470
 104.0298970  69.2247860  47.7934450 103.7409710  69.6371840  46.3657460
  90.4044760  80.9771780  46.6876430  90.0199550  80.3365450  47.2859390
  90.7156950  81.6807900  47.2571160  96.5541900  77.8248320  42.1685050
  96.9212030  77.3506890  42.9146390  96.3646960  78.6989890  42.5093390
  94.3441270  76.8656960  44.4869260  94.0398340  77.7448940  44.7119620
  95.2987730  76.9256750  44.5226700  92.8723060  81.0717950  35.0836110
  92.0985320  80.5315570  34.9234830  93.6017690  80.5524560  34.7453870
 103.6311040  80.0683310  40.8762500 104.3510160  80.5638600  40.4858610
 103.4292860  79.3901200  40.2316370  99.0129840  80.1392370  46.7631500
  98.9467150  79.2188040  46.5089090  98.3834980  80.2367810  47.4776140
 101.8069370  75.8340920  33.3154050 102.6948990  76.1458150  33.1405390
 101.7774460  74.9613170  32.9234630  92.9160460  80.7398330  38.7214920
  93.4339130  79.9366590  38.6671810  92.4644480  80.6777470  39.5631750
  97.8029960  82.0064610  33.9942220  98.1445660  82.7506840  33.4985540
  96.9742670  82.3195730  34.3567050  90.4005000  77.7059700  45.6340620
  90.0419940  78.3713550  46.2213960  90.1059560  76.8743250  46.0053240
  93.6018120  78.1643940  48.5180170  93.3018260  78.3101120  47.6207990
  94.3729360  77.6049230  48.4253560  98.9446570  82.9612940  46.5135300
  98.9591110  82.0293900  46.2954210  98.2371670  83.0472700  47.1525070
 104.0783640  77.1452760  32.7833910 103.9947360  77.5766980  31.9330350
 104.7977830  77.6051110  33.2160730 105.1557780  79.6020280  45.8603880
 104.4305970  80.1949060  45.6633270 105.6833240  79.5943820  45.0617250
 105.1070890  83.9995020  35.5116040 104.4647050  83.3450640  35.7859760
 104.7201550  84.4050110  34.7356710 100.6857370  81.3280450  39.3587730
 101.0381190  80.7308580  38.6989100  99.8019700  81.0024680  39.5295980
  96.7720650  82.0878140  36.7658140  97.4591780  82.6347350  37.1465730
  95.9853070  82.6318870  36.8007750  88.9113050  77.7050960  32.2575220
  89.7807900  77.9875760  32.5411140  88.4203370  78.5186830  32.1424030
  96.0747860  79.0924170  36.3783500  96.5310640  79.9029420  36.6043690
  95.7236070  78.7747310  37.2101990  98.3780470  84.6030510  43.6075800
  99.0222690  84.8089890  44.2849220  98.7409910  83.8418910  43.1546650
  99.6512550  82.6062860  42.3253250 100.2934780  81.9056020  42.4385420
 100.1761900  83.3861300  42.1450140 103.4968270  82.8911480  32.0492390
 103.2705850  82.1741920  32.6417030 103.1064470  82.6423920  31.2114140
 101.4250170  83.4057760  45.5289310 101.7606410  83.9924450  46.2067230
 100.5050510  83.2750470  45.7587100  89.2784300  86.9178340  32.8236850
  89.6381940  87.5167680  32.1694120  89.1376640  87.4638230  33.5971880
  88.9753570  71.1952940  46.3112720  88.2612090  71.3949860  46.9165330
  89.3948610  70.4192510  46.6827520 103.0784520  80.8083420  33.7106550
 102.7906220  81.2696110  34.4984430 103.8736690  80.3481190  33.9790770
  89.2626160  85.1833200  47.2979250  89.3717280  84.2427940  47.1574640
  88.6106720  85.4487950  46.6492980  97.2538750  83.4549090  48.6977370
  96.9335620  82.7358330  49.2423060  96.5797110  84.1304160  48.7713430
  95.2952920  84.3009540  33.6410520  95.2863020  85.0339230  33.0255030
  94.3751280  84.0541120  33.7337480  90.8959560  79.5224430  34.3857280
  90.2887510  80.2623330  34.3952580  91.3708910  79.6123790  33.5595480
 100.4692350  73.6875250  44.0614170 100.8373170  72.8670460  44.3893740
  99.6090550  73.7477140  44.4769820 103.8354380  72.6432190  34.8701730
 103.2067540  72.7477860  34.1559960 103.3406300  72.8628970  35.6595610
  98.2812520  84.3637780  32.3035710  98.3824500  84.1601770  31.3737690
  97.3814260  84.1096060  32.5083490  95.8038410  74.9218140  36.2859610
  95.0954560  75.3904480  36.7273220  96.0882890  74.2640150  36.9204800
  96.9230630  86.8824100  36.9983380  97.1772130  86.8445490  36.0762750
  95.9743110  86.7557430  36.9911630  94.0073430  73.2303220  33.6610320
  94.8563960  73.6673370  33.5950510  93.6404700  73.5423480  34.4882380
 104.6361200  72.5582800  45.1280530 104.1334800  73.2988200  45.4674340
 105.4517860  72.9466800  44.8117320 102.9283210  77.8015980  38.5741890
 101.9873350  77.8166210  38.7489580 103.2427280  77.0151940  39.0202190
  92.9064850  79.4835580  32.1345850  93.6728120  79.3716940  32.6971280
  92.9839540  78.7873550  31.4822620  91.6011610  76.9160650  32.8178740
  91.6815200  75.9688160  32.9296140  92.4931360  77.2467530  32.9239400
 104.9308790  84.9724830  40.2496150 105.0556210  85.7956000  40.7219960
 105.7974350  84.7615560  39.9020300  92.4026320  87.0656040  39.9213280
  93.1388800  86.5171500  40.1921850  92.7867240  87.9312050  39.7819270
  89.2871800  83.1329610  35.7954790  88.3611580  83.3750750  35.7860200
  89.7528230  83.9603870  35.6739540  91.4084600  86.2502110  49.1098860
  92.2097330  86.5714160  49.5234260  90.8936420  85.8897690  49.8318770
  95.5128630  86.2386350  31.7438850  96.3057240  86.5275180  31.2920640
  94.9932980  85.8078520  31.0651330 100.2449230  82.3581980  49.0574270
  99.6387390  82.3813580  48.3170020  99.9403340  81.6265020  49.5941520
 101.6749600  86.0862270  47.6683680 102.6271350  86.0020290  47.6183920
 101.5277820  86.7503980  48.3417470 104.5658800  85.4656480  33.1675590
 104.2800310  85.0521620  32.3529770 104.3678350  86.3944190  33.0476110
  89.1282410  78.7375570  48.0534910  89.6321430  78.1582850  48.6251140
  88.3889830  79.0215800  48.5911280  96.0306030  81.4589760  31.6081200
  95.9256670  80.8442110  32.3342580  95.8630250  80.9355650  30.8244210
  96.1820350  80.1446560  47.5870430  95.4166020  80.7131560  47.5025100
  96.3636310  79.8522770  46.6938660  99.2708760  80.5209790  32.2123190
  98.7218860  80.9679090  32.8565930  99.8928020  80.0159040  32.7360860
 103.3243700  81.8751890  48.1445450 104.0653170  82.2127650  47.6412910
 102.5616380  82.0443950  47.5915220  91.1605490  76.8805160  48.9484980
  91.2010830  76.5819030  49.8570210  92.0150990  77.2812770  48.7892500
  94.9383880  79.4800710  34.1088490  95.3600300  79.3140580  34.9519880
  95.0634720  78.6700940  33.6143630  93.1011300  75.4597260  46.9159470
  92.5707760  74.9688210  46.2882810  93.7699370  75.8881460  46.3817400
  97.4511520  78.5038320  31.3565590  97.9717180  77.7887340  30.9906740
  98.0979920  79.1424190  31.6566100 101.9989360  79.9266720  46.6800660
 102.4130380  80.0811800  47.5291080 101.0640360  80.0521940  46.8426440
 102.4711530  77.2662880  48.6839810 103.0532300  76.5115200  48.5960290
 102.6473300  77.7970320  47.9071290  93.5883600  72.4259630  46.9956760
  93.4940470  71.8080380  46.2707630  93.0080990  73.1525920  46.7686670
  96.3545040  70.9832870  44.0284150  95.9062340  71.0057130  43.1829700
  95.7210240  70.5851890  44.6254450  96.7604590  79.8787200  44.6496590
  97.1792700  80.7219930  44.4772830  95.8413220  80.0159240  44.4203370
  99.0968490  77.6103380  46.0334430  99.2164700  77.0144520  46.7729270
  99.9562490  77.6473070  45.6135730 101.4356390  78.1640570  44.6096940
 100.9091610  78.6883190  44.0062080 101.7787730  78.7967960  45.2406670
  93.8342780  75.5533940  31.0546650  93.6331840  74.6901300  31.4159990
  93.6634830  75.4667300  30.1168250  94.6112010  86.1840210  45.7654320
  94.0733100  86.9086270  45.4463020  94.8645970  85.7070550  44.9751660
  95.8637260  74.1524730  47.2910250  96.4536950  73.8440580  47.9788070
  95.0457500  73.6804480  47.4470150 100.6830690  73.7690540  47.5243270
  99.9946210  73.1072080  47.4593260 101.4036710  73.3228810  47.9691730
 101.3131090  70.3642170  33.5833530 101.5933380  69.5210070  33.9392950
 100.5396820  70.5965280  34.0972280  92.6325580  72.6534560  31.0424530
  92.9351480  72.6601990  30.1343680  93.3720170  72.3032420  31.5392190
  97.4674220  87.4191420  46.0240970  97.3932920  88.3226560  46.3313340
  96.5653060  87.1003320  45.9963040  95.8510510  71.5969180  32.0280730
  95.5032510  70.9193170  31.4483180  96.0523280  71.1358690  32.8424120
  98.0159550  86.5849930  33.6467330  98.9110340  86.9234900  33.6686090
  98.0477180  85.8629340  33.0191610  91.6555710  81.9576980  31.8754330
  92.0930580  82.5006650  32.5311910  92.1403440  81.1323930  31.8850670
  88.8701510  84.7466010  39.3274590  89.2004520  83.8787070  39.0953230
  89.2992510  84.9524530  40.1579550  93.4663430  83.0775020  36.9876560
  93.1658970  82.9539990  37.8880470  93.3600920  82.2183610  36.5792290
  89.3591720  85.6136600  42.0656220  88.9222710  85.7937400  42.8980370
  89.9269400  86.3711220  41.9237940 104.9953900  85.1153600  46.3533530
 104.3955890  85.1746160  45.6097450 105.1247800  84.1758580  46.4830380
 106.2355350  82.8571420  31.6903240 105.4048310  82.9248070  32.1610470
 106.4127180  83.7475540  31.3870100 105.6911810  79.6018900  34.1937440
 106.4530720  80.1715550  34.2997130 105.7066180  79.0346100  34.9645750
  89.1916150  78.1256830  38.4245100  88.5364990  77.8568470  37.7804800
  90.0294100  78.0161310  37.9747080 103.6805540  81.8405580  44.4509690
 102.8665380  82.2702740  44.7135480 104.0879740  82.4523990  43.8378740
 105.7430980  79.8953270  31.3509960 106.0179820  80.8032150  31.2229180
 105.5541720  79.8315800  32.2871950 102.1406590  72.9198120  32.6463590
 102.5591470  72.7329100  31.8060250 101.8342650  72.0677170  32.9566520
 105.6396320  77.8322260  36.3439390 105.2639920  77.0650190  35.9120680
 104.9099440  78.2144960  36.8314320  90.2292080  78.5109400  42.9648440
  90.5965120  78.4236800  43.8444460  89.6602900  77.7475950  42.8655300
 105.0295940  76.9793780  45.9778910 104.7982030  76.7506530  45.0776860
 105.2900490  77.8993330  45.9323800  89.7808080  75.4218490  46.8706860
  88.8864130  75.3885250  47.2100570  90.3205630  75.6205280  47.6358110
 103.4684010  72.2050210  48.7558610 104.3454190  72.2133610  49.1392610
 103.4804850  71.4681050  48.1450960  88.4054230  75.3355760  34.3670430
  87.5018310  75.5985960  34.1922090  88.8894850  75.6066930  33.5870390
 104.9147280  76.0579750  39.6446630 105.4384760  75.5642400  39.0136800
 105.5006700  76.1930110  40.3894200 105.0937000  76.1419620  43.1666180
 104.1439710  76.1083160  43.2811170 105.2750010  77.0519730  42.9315950
  90.9481440  74.3921300  32.2764810  91.6573140  73.9704520  31.7912090
  90.2321380  74.4596530  31.6448160  90.5955600  70.4460630  31.3167460
  91.3183730  70.9869570  31.6348680  90.8680120  70.1724050  30.4409000
 104.4047250  75.3153100  35.5839040 104.9006370  75.0823970  36.3687920
 104.2063320  74.4764940  35.1676680 105.8334410  73.9514050  38.1176720
 105.7233690  73.7970090  39.0558990 106.5942000  73.4234990  37.8752130
 104.1800130  69.8908180  44.5759720 104.8172350  70.5042320  44.9418910
 104.3275020  69.9268840  43.6308950 106.7224680  71.7821970  31.3582860
 107.6473990  71.6503150  31.1501150 106.7000470  71.8614790  32.3119310
 106.7963170  72.5532630  33.9839570 106.0014670  72.4877750  34.5132480
 107.0006450  73.4883270  33.9724920 103.7381590  86.5924180  37.9777960
 104.3340660  86.2708750  37.3012380 103.9959740  86.1196000  38.7691230
  91.6444160  83.0242090  48.1268590  91.6013790  82.6535000  49.0083050
  91.7755170  83.9619660  48.2670410  95.3450190  84.5801680  43.7278310
  95.1041550  84.8476240  42.8408830  96.2852830  84.7507410  43.7829170
  97.5504610  71.0434370  47.4834820  97.4893500  71.6356200  48.2330230
  98.4904990  70.9360330  47.3385080 100.1879170  70.7004430  47.1227110
 100.8019580  71.0183720  46.4608190 100.7328730  70.2153020  47.7422970
 106.6054350  86.5996060  44.5288950 106.1112630  86.9964930  43.8116080
 105.9967640  85.9745270  44.9226230  90.7100430  69.3798690  47.2366170
  91.2583420  69.1986740  46.4732280  90.7755740  68.5892800  47.7722480
  91.4832190  85.9704340  45.2466370  90.8892510  85.8389040  45.9856410
  91.4756030  85.1342480  44.7808470 100.9287210  69.2636570  43.4496400
 100.0547050  69.5971680  43.2469330 100.8197960  68.7909750  44.2748270
 101.8359190  71.4707440  44.8338120 101.5072550  70.6559200  44.4539850
 102.7841490  71.4277250  44.7103810 104.2893800  87.2419480  41.8075690
 103.8296770  87.9935290  41.4333710 103.6606260  86.5225950  41.7490490
  91.1144420  83.3362720  44.1974410  90.3878480  82.7168010  44.1300360
  91.1753570  83.7303330  43.3272490  94.7189520  85.5507720  40.9823820
  95.2354540  84.9395080  40.4572080  95.3686900  86.0536500  41.4734830
  97.4585020  86.4416210  41.8092800  97.7462830  86.1870510  40.9325810
  97.9708240  85.8893570  42.3998370 105.0921670  70.5144750  38.4447220
 105.0310070  69.5705970  38.2978240 105.8713700  70.6224840  38.9900680
  89.3974420  86.6537110  37.4071170  89.2296460  86.0207790  38.1053060
  88.5308930  86.8596510  37.0565360  90.0202440  70.4853890  34.9103030
  90.7781800  70.5982770  34.3367060  89.5579610  71.3223090  34.8646460
 104.2075830  69.6657170  34.4128690 104.4026460  70.5640620  34.6796120
 103.4205700  69.4344250  34.9061640  91.0037120  85.3470340  34.8521310
  90.4784740  85.7278370  34.1483270  90.9281700  85.9721110  35.5731020
  92.3927590  71.0117940  33.4505000  92.9220350  70.2247740  33.3212950
  93.0255910  71.6909130  33.6840530  97.5257380  87.3632310  49.1761000
  98.4524690  87.1276580  49.2196960  97.5107810  88.1904310  48.6947030
 105.7602440  86.9057880  36.1735250 105.9354630  86.2195620  35.5296170
 105.0624010  87.4304930  35.7811920  94.7120990  70.0277060  48.9402880
  94.4305260  70.5310660  48.1763700  95.0940690  69.2298810  48.5745010
  93.6030090  87.2952720  33.7270560  94.3348910  87.0112000  33.1794450
  93.8623760  87.0566000  34.6169940  92.7644880  83.4117450  33.7316890
  92.1353760  83.8802550  34.2802720  92.8792710  82.5666670  34.1663080
 101.3136450  69.4430640  49.5183350 101.2001900  69.7625250  50.4134870
 102.1306190  69.8443150  49.2220630 104.0934940  86.5902170  49.0002040
 104.8860260  86.0951400  48.7928000 104.3868090  87.2692310  49.6077650
 100.2194600  77.4623110  19.8818090 100.1388650  76.5477720  19.6109800
  99.8059020  77.9590180  19.1757800  98.3512640  79.2402130  21.7627360
  97.5754740  78.7602570  22.0525930  99.0025570  78.5607780  21.5883520
  92.3678470  79.5521940  22.6403120  91.5363350  79.2970650  23.0399630
  92.9759450  79.6232710  23.3761040 102.3720070  83.6462320  20.5426490
 101.9101600  82.8749560  20.8713660 103.1845620  83.6728390  21.0478940
  92.3479730  83.5862030  22.8361140  92.6507770  82.6959770  22.6571360
  93.0923320  84.1432250  22.6083390  90.7770420  74.5123830  16.4245510
  89.8887120  74.8539800  16.3225390  91.0611610  74.3124150  15.5326340
  88.7403430  77.1129480  22.3085210  89.3119540  76.3451680  22.3088850
  88.7404970  77.4118240  21.3991820  98.5983380  85.9320330  20.1630480
  97.9794820  86.3877830  19.5924920  99.4535160  86.0871790  19.7620180
  97.7921630  81.9159320  21.7697520  97.7229910  80.9749260  21.6086650
  98.5541490  82.0060730  22.3420090  89.9828300  72.5213840  24.0954140
  89.8031140  71.6239590  24.3756900  89.5808380  73.0685710  24.7701090
  98.8226800  74.7229700  21.9966450  99.1991620  73.8501580  21.8840120
  98.7246310  75.0588400  21.1056890  92.9531810  73.0955330  17.4583890
  93.0598560  73.9959060  17.7652650  92.0424170  73.0473300  17.1678540
 102.6050920  72.2180140  18.9294790 103.4260540  71.7276710  18.9720270
 102.6385000  72.8077800  19.6826630  90.6014970  75.0174340  22.7036480
  91.2825080  75.2812710  23.3223880  90.2863020  74.1775210  23.0374490
  94.7939540  76.0641700  21.7909070  95.3017760  76.5622670  22.4314090
  95.3252780  75.2876900  21.6148430 106.8950470  74.2346890  25.4938420
 106.1902640  74.6228600  24.9753530 107.1608390  74.9297180  26.0959350
  93.0775640  70.7040260  26.0572490  93.0794080  71.2212650  25.2518390
  92.2479950  70.2270440  26.0342420  99.4646730  80.8159570  17.5562390
  98.8464000  81.2809020  16.9925110  99.9769980  81.5087050  17.9731900
  94.3278490  80.3435440  24.2345990  93.9947870  80.9704360  24.8767060
  94.5045170  80.8697320  23.4547660 102.8412400  74.1580520  21.7022330
 102.1367970  74.4465410  22.2825440 103.2024560  74.9680630  21.3421890
  92.7590970  72.4150220  24.0642940  93.1007780  73.2592270  23.7696810
  91.8206780  72.5633960  24.1808280  93.5397590  82.3116240  26.0495170
  94.1571590  82.9867320  25.7679620  92.6790710  82.7204220  25.9582670
  88.8329930  81.5016100  14.9302020  88.4557910  81.9903200  14.1986920
  89.0903000  82.1741380  15.5608550 104.4575180  83.7755650  23.9649810
 103.7738700  84.4454760  23.9566480 104.9969470  83.9736300  23.1994670
 105.9099320  73.6035310  22.0931540 104.9624230  73.6374290  22.2246970
 106.2349310  74.4174260  22.4780900  96.4418860  69.9032490  20.3887530
  96.7493840  69.3479380  19.6723030  95.5119560  70.0376950  20.2060520
 101.9933920  85.6199780  22.6794990 102.0061080  85.2162070  21.8117250
 101.4409140  86.3947070  22.5756420 103.2879340  82.3416000  17.7685160
 103.1775670  81.3990330  17.8934580 103.2847590  82.7031640  18.6547920
 101.3919360  80.5229620  24.0077600 101.8088150  80.3089730  23.1731060
 102.1159180  80.7802410  24.5786220  98.8299620  77.9681320  17.1247650
  97.9028900  77.9018700  17.3536120  98.9824440  78.9061450  17.0102890
  98.8168700  74.2398320  14.1214810  97.8772370  74.4012280  14.2067270
  99.1351960  74.9584000  13.5750800 105.3381460  78.9216840  24.0993840
 104.5100090  78.9909930  23.6243970 105.9331940  79.5071150  23.6309670
 102.8596910  79.5301620  17.6282900 102.2409330  79.1921170  16.9809200
 102.8421360  78.8861380  18.3362090 102.3023470  75.7086160  25.0448710
 101.8894650  76.5339870  25.2988700 101.5699420  75.1231200  24.8525070
  94.4356260  78.4946060  19.9067380  94.0313260  77.7823310  19.4113280
  94.5219380  78.1499300  20.7955420  94.9037960  82.1813620  22.0706590
  94.6066250  81.5759090  21.3914370  95.8537780  82.2190930  21.9595950
  93.1484880  75.2689270  23.6866420  93.6999470  75.3784610  22.9119670
  93.6628390  75.6426870  24.4021650 102.9923570  85.7545490  25.7329690
 102.5154130  86.5617680  25.5402300 102.3085360  85.1023820  25.8855900
  93.9956390  81.9195310  28.7214390  93.0984920  82.1435280  28.9687790
  94.0209260  82.0430250  27.7725790 101.0361610  78.7688430  14.6355650
 101.4754890  77.9310860  14.4893470 101.7490030  79.4017830  14.7219790
  92.8227610  78.7908630  27.2971760  92.6835380  79.6631430  27.6659160
  91.9408970  78.4481440  27.1519700  99.1456990  83.7084500  18.6036890
  99.5852900  84.4508830  18.1892280  99.0843880  83.9511070  19.5275850
  94.6207960  84.7330330  29.5056910  94.5923390  85.1373280  28.6385340
  94.4572930  83.8040690  29.3428510 104.6178750  70.0231240  12.9496690
 104.3051410  70.1158070  13.8495760 105.3791220  70.6012270  12.8994120
  91.1360890  77.3891040  17.4074030  91.0158490  78.1153130  16.7955300
  90.8261780  76.6193950  16.9301940 106.5722780  85.5157430  30.8021080
 107.0482500  85.9940320  31.4810160 107.1929940  85.4474920  30.0766580
  88.7746260  80.5606180  23.2142670  88.8526680  80.6954950  22.2698390
  89.3887940  79.8522070  23.4070790  90.0193890  82.2606370  19.6248850
  89.6121970  82.4020960  18.7702450  90.9106900  81.9766530  19.4220060
 105.9756030  82.7070280  27.9621090 106.1019090  82.4682160  27.0438270
 106.0177410  81.8754820  28.4343170  99.8372770  86.4098280  26.5315900
 100.3517440  86.3206290  27.3338330  98.9941850  86.7557980  26.8243810
 101.8127170  86.6953620  15.9599900 101.6528310  86.4056560  16.8581730
 101.6473880  85.9193750  15.4245130  94.2915550  86.4752150  17.7371520
  94.1158030  85.5587690  17.5239320  93.4371290  86.8339440  17.9769320
 101.5153300  84.2041180  14.5197900 100.8218460  84.2018470  13.8600180
 102.2576160  83.7800500  14.0892070 101.0803230  85.8303890  18.5946390
 101.5360180  85.0493270  18.9085010 101.4195750  86.5410710  19.1387570
 105.8280040  74.7602740  28.9270830 105.2124310  75.2682410  28.3986290
 105.5076460  73.8601070  28.8696770  88.8305780  81.6020350  25.7537130
  88.9936820  81.1325710  24.9356500  89.2958230  81.0943910  26.4185970
  93.6024550  70.7326110  20.7897700  93.1592700  71.5135650  20.4582220
  94.1609540  71.0556000  21.4968640  97.8894360  73.5994630  26.3933020
  97.4273730  73.8077650  27.2052960  97.4872470  72.7853980  26.0903690
 102.8898870  74.8203580  27.5229680 102.0392460  74.5209330  27.8438750
 102.7300660  75.0645590  26.6113500  99.9848580  76.3205330  29.6228470
 100.3101990  75.4869080  29.2830700 100.7728910  76.8433850  29.7706800
  96.7183370  70.3536810  15.6703530  96.0937550  70.3496680  16.3956840
  96.6313490  69.4867770  15.2739500  95.6400450  71.2773440  22.6487300
  95.9372780  72.1836270  22.5679320  96.1886010  70.7892220  22.0346870
  93.3938770  75.8559680  18.5178950  93.1679690  75.6396850  19.4225570
  92.6131300  76.2888140  18.1724920 100.6236530  75.8623050  17.1169600
 100.0245420  76.5858850  16.9333220 101.1716140  75.7999830  16.3346050
  95.8337980  76.7545260  29.1839220  95.7381580  75.8139990  29.0339620
  96.6769960  76.9760330  28.7887290  99.2301400  74.4986590  19.1472880
  99.6230970  74.8158790  18.3341570  99.5918250  73.6198470  19.2617400
  90.9648520  73.1658930  27.3373000  90.5711910  74.0134140  27.5445780
  90.2766920  72.5285300  27.5281640  97.5393570  73.2493900  30.4069740
  96.8491890  73.0566100  31.0415830  98.2825870  73.5328540  30.9394040
  88.2665570  71.0887390  21.3703080  87.9778620  71.6590250  22.0828060
  89.0111330  70.6091840  21.7334310  88.4535800  75.0307510  12.5805800
  88.3710470  75.9738270  12.7220790  88.1018860  74.8882420  11.7018150
  99.8156540  77.0892340  23.2423660  99.0837660  77.5979150  23.5913760
  99.4180880  76.2722320  22.9412440  96.2533930  73.7646540  21.6476150
  96.2569990  73.3236490  20.7980690  97.1485050  74.0863870  21.7547970
  92.1036310  73.6473030  20.6070360  91.7636360  74.1248260  21.3637410
  91.3413630  73.1938150  20.2471460  96.3154080  74.7658620  14.6382910
  96.4366900  74.7245100  15.5868730  95.9302590  75.6282770  14.4829640
 100.2782450  72.5426020  22.6546600 100.2955190  72.9934670  23.4988450
 100.0298030  71.6431660  22.8680040  95.3275580  77.0759760  14.0366210
  94.7592480  76.6278010  13.4102120  96.0364580  77.4352540  13.5031360
 103.7053200  69.9558200  28.4932980 104.0298970  69.2247860  29.0190960
 103.7409710  69.6371840  27.5913970  90.4044760  80.9771780  27.9132940
  90.0199550  80.3365450  28.5115900  90.7156950  81.6807900  28.4827670
  96.5541900  77.8248320  23.3941560  96.9212030  77.3506890  24.1402900
  96.3646960  78.6989890  23.7349900  89.4182390  72.5692010  19.5235030
  89.1329310  72.2047680  20.3613650  89.3561250  71.8372470  18.9098170
  94.3441270  76.8656960  25.7125770  94.0398340  77.7448940  25.9376130
  95.2987730  76.9256750  25.7483210  92.8723060  81.0717950  16.3092620
  92.0985320  80.5315570  16.1491340  93.6017690  80.5524560  15.9710380
 103.6311040  80.0683310  22.1019010 104.3510160  80.5638600  21.7115120
 103.4292860  79.3901200  21.4572880  99.0920980  71.4621270  16.2448400
  98.2785590  70.9634440  16.1693710  98.8982930  72.3019520  15.8284750
  99.0129840  80.1392370  27.9888010  98.9467150  79.2188040  27.7345600
  98.3834980  80.2367810  28.7032650 101.8069370  75.8340920  14.5410560
 102.6948990  76.1458150  14.3661900 101.7774460  74.9613170  14.1491140
  92.9160460  80.7398330  19.9471430  93.4339130  79.9366590  19.8928320
  92.4644480  80.6777470  20.7888260  97.8029960  82.0064610  15.2198730
  98.1445660  82.7506840  14.7242050  96.9742670  82.3195730  15.5823560
  90.4005000  77.7059700  26.8597130  90.0419940  78.3713550  27.4470470
  90.1059560  76.8743250  27.2309750  93.6018120  78.1643940  29.7436680
  93.3018260  78.3101120  28.8464500  94.3729360  77.6049230  29.6510070
  98.9446570  82.9612940  27.7391810  98.9591110  82.0293900  27.5210720
  98.2371670  83.0472700  28.3781580 104.0783640  77.1452760  14.0090420
 103.9947360  77.5766980  13.1586860 104.7977830  77.6051110  14.4417240
 105.1557780  79.6020280  27.0860390 104.4305970  80.1949060  26.8889780
 105.6833240  79.5943820  26.2873760 105.1070890  83.9995020  16.7372550
 104.4647050  83.3450640  17.0116270 104.7201550  84.4050110  15.9613220
 100.6857370  81.3280450  20.5844240 101.0381190  80.7308580  19.9245610
  99.8019700  81.0024680  20.7552490  96.7720650  82.0878140  17.9914650
  97.4591780  82.6347350  18.3722240  95.9853070  82.6318870  18.0264260
  88.9113050  77.7050960  13.4831730  89.7807900  77.9875760  13.7667650
  88.4203370  78.5186830  13.3680540  96.0747860  79.0924170  17.6040010
  96.5310640  79.9029420  17.8300200  95.7236070  78.7747310  18.4358500
  98.3780470  84.6030510  24.8332310  99.0222690  84.8089890  25.5105730
  98.7409910  83.8418910  24.3803160  91.9759640  69.4361820  18.0762530
  91.8474270  69.4279720  19.0247450  91.1521660  69.7744910  17.7253540
  99.6512550  82.6062860  23.5509760 100.2934780  81.9056020  23.6641930
 100.1761900  83.3861300  23.3706650 103.4968270  82.8911480  13.2748900
 103.2705850  82.1741920  13.8673540 103.1064470  82.6423920  12.4370650
 101.4250170  83.4057760  26.7545820 101.7606410  83.9924450  27.4323740
 100.5050510  83.2750470  26.9843610  89.2784300  86.9178340  14.0493360
  89.6381940  87.5167680  13.3950630  89.1376640  87.4638230  14.8228390
  88.9753570  71.1952940  27.5369230  88.2612090  71.3949860  28.1421840
  89.3948610  70.4192510  27.9084030 103.0784520  80.8083420  14.9363060
 102.7906220  81.2696110  15.7240940 103.8736690  80.3481190  15.2047280
  89.2626160  85.1833200  28.5235760  89.3717280  84.2427940  28.3831150
  88.6106720  85.4487950  27.8749490  97.2538750  83.4549090  29.9233880
  96.9335620  82.7358330  30.4679570  96.5797110  84.1304160  29.9969940
  95.2952920  84.3009540  14.8667030  95.2863020  85.0339230  14.2511540
  94.3751280  84.0541120  14.9593990  90.8959560  79.5224430  15.6113790
  90.2887510  80.2623330  15.6209090  91.3708910  79.6123790  14.7851990
 100.4692350  73.6875250  25.2870680 100.8373170  72.8670460  25.6150250
  99.6090550  73.7477140  25.7026330 103.8354380  72.6432190  16.0958240
 103.2067540  72.7477860  15.3816470 103.3406300  72.8628970  16.8852120
  98.2812520  84.3637780  13.5292220  98.3824500  84.1601770  12.5994200
  97.3814260  84.1096060  13.7340000  95.8038410  74.9218140  17.5116120
  95.0954560  75.3904480  17.9529730  96.0882890  74.2640150  18.1461310
  97.4294340  76.3414840  25.5108650  97.9279590  76.8160660  26.1760500
  97.5717290  75.4178360  25.7178680  99.8353840  71.6468800  18.9511910
  99.7121620  71.6654930  18.0021420 100.7838400  71.6947740  19.0710310
  96.9230630  86.8824100  18.2239890  97.1772130  86.8445490  17.3019260
  95.9743110  86.7557430  18.2168140  94.0073430  73.2303220  14.8866830
  94.8563960  73.6673370  14.8207020  93.6404700  73.5423480  15.7138890
 104.6361200  72.5582800  26.3537040 104.1334800  73.2988200  26.6930850
 105.4517860  72.9466800  26.0373830 102.9283210  77.8015980  19.7998400
 101.9873350  77.8166210  19.9746090 103.2427280  77.0151940  20.2458700
  92.9064850  79.4835580  13.3602360  93.6728120  79.3716940  13.9227790
  92.9839540  78.7873550  12.7079130  91.6011610  76.9160650  14.0435250
  91.6815200  75.9688160  14.1552650  92.4931360  77.2467530  14.1495910
 104.9308790  84.9724830  21.4752660 105.0556210  85.7956000  21.9476470
 105.7974350  84.7615560  21.1276810  92.4026320  87.0656040  21.1469790
  93.1388800  86.5171500  21.4178360  92.7867240  87.9312050  21.0075780
  89.2871800  83.1329610  17.0211300  88.3611580  83.3750750  17.0116710
  89.7528230  83.9603870  16.8996050  91.4084600  86.2502110  30.3355370
  92.2097330  86.5714160  30.7490770  90.8936420  85.8897690  31.0575280
  95.5128630  86.2386350  12.9695360  96.3057240  86.5275180  12.5177150
  94.9932980  85.8078520  12.2907840 100.2449230  82.3581980  30.2830780
  99.6387390  82.3813580  29.5426530  99.9403340  81.6265020  30.8198030
 101.6749600  86.0862270  28.8940190 102.6271350  86.0020290  28.8440430
 101.5277820  86.7503980  29.5673980 104.5658800  85.4656480  14.3932100
 104.2800310  85.0521620  13.5786280 104.3678350  86.3944190  14.2732620
  89.1282410  78.7375570  29.2791420  89.6321430  78.1582850  29.8507650
  88.3889830  79.0215800  29.8167790  96.0306030  81.4589760  12.8337710
  95.9256670  80.8442110  13.5599090  95.8630250  80.9355650  12.0500720
  96.1820350  80.1446560  28.8126940  95.4166020  80.7131560  28.7281610
  96.3636310  79.8522770  27.9195170  99.2708760  80.5209790  13.4379700
  98.7218860  80.9679090  14.0822440  99.8928020  80.0159040  13.9617370
 103.3243700  81.8751890  29.3701960 104.0653170  82.2127650  28.8669420
 102.5616380  82.0443950  28.8171730  91.1605490  76.8805160  30.1741490
  91.2010830  76.5819030  31.0826720  92.0150990  77.2812770  30.0149010
  94.9383880  79.4800710  15.3345000  95.3600300  79.3140580  16.1776390
  95.0634720  78.6700940  14.8400140  93.1011300  75.4597260  28.1415980
  92.5707760  74.9688210  27.5139320  93.7699370  75.8881460  27.6073910
  97.4511520  78.5038320  12.5822100  97.9717180  77.7887340  12.2163250
  98.0979920  79.1424190  12.8822610 101.9989360  79.9266720  27.9057170
 102.4130380  80.0811800  28.7547590 101.0640360  80.0521940  28.0682950
 102.4711530  77.2662880  29.9096320 103.0532300  76.5115200  29.8216800
 102.6473300  77.7970320  29.1327800  93.5883600  72.4259630  28.2213270
  93.4940470  71.8080380  27.4964140  93.0080990  73.1525920  27.9943180
  96.3545040  70.9832870  25.2540660  95.9062340  71.0057130  24.4086210
  95.7210240  70.5851890  25.8510960  96.7604590  79.8787200  25.8753100
  97.1792700  80.7219930  25.7029340  95.8413220  80.0159240  25.6459880
  99.0968490  77.6103380  27.2590940  99.2164700  77.0144520  27.9985780
  99.9562490  77.6473070  26.8392240 101.4356390  78.1640570  25.8353450
 100.9091610  78.6883190  25.2318590 101.7787730  78.7967960  26.4663180
  93.8342780  75.5533940  12.2803160  93.6331840  74.6901300  12.6416500
  93.6634830  75.4667300  11.3424760  94.6112010  86.1840210  26.9910830
  94.0733100  86.9086270  26.6719530  94.8645970  85.7070550  26.2008170
  95.8637260  74.1524730  28.5166760  96.4536950  73.8440580  29.2044580
  95.0457500  73.6804480  28.6726660 100.6830690  73.7690540  28.7499780
  99.9946210  73.1072080  28.6849770 101.4036710  73.3228810  29.1948240
 101.3131090  70.3642170  14.8090040 101.5933380  69.5210070  15.1649460
 100.5396820  70.5965280  15.3228790  92.6325580  72.6534560  12.2681040
  92.9351480  72.6601990  11.3600190  93.3720170  72.3032420  12.7648700
  97.4674220  87.4191420  27.2497480  97.3932920  88.3226560  27.5569850
  96.5653060  87.1003320  27.2219550  95.8510510  71.5969180  13.2537240
  95.5032510  70.9193170  12.6739690  96.0523280  71.1358690  14.0680630
  98.0159550  86.5849930  14.8723840  98.9110340  86.9234900  14.8942600
  98.0477180  85.8629340  14.2448120  91.6555710  81.9576980  13.1010840
  92.0930580  82.5006650  13.7568420  92.1403440  81.1323930  13.1107180
  88.8701510  84.7466010  20.5531100  89.2004520  83.8787070  20.3209740
  89.2992510  84.9524530  21.3836060  93.4663430  83.0775020  18.2133070
  93.1658970  82.9539990  19.1136980  93.3600920  82.2183610  17.8048800
  89.3591720  85.6136600  23.2912730  88.9222710  85.7937400  24.1236880
  89.9269400  86.3711220  23.1494450 104.9953900  85.1153600  27.5790040
 104.3955890  85.1746160  26.8353960 105.1247800  84.1758580  27.7086890
 106.2355350  82.8571420  12.9159750 105.4048310  82.9248070  13.3866980
 106.4127180  83.7475540  12.6126610 105.6911810  79.6018900  15.4193950
 106.4530720  80.1715550  15.5253640 105.7066180  79.0346100  16.1902260
  89.1916150  78.1256830  19.6501610  88.5364990  77.8568470  19.0061310
  90.0294100  78.0161310  19.2003590 106.6971780  80.4569000  20.2635880
 107.0680610  79.6736320  19.8571850 107.3373710  81.1458100  20.0853180
 103.6805540  81.8405580  25.6766200 102.8665380  82.2702740  25.9391990
 104.0879740  82.4523990  25.0635250 105.7430980  79.8953270  12.5766470
 106.0179820  80.8032150  12.4485690 105.5541720  79.8315800  13.5128460
 102.1406590  72.9198120  13.8720100 102.5591470  72.7329100  13.0316760
 101.8342650  72.0677170  14.1823030 105.6396320  77.8322260  17.5695900
 105.2639920  77.0650190  17.1377190 104.9099440  78.2144960  18.0570830
  90.2292080  78.5109400  24.1904950  90.5965120  78.4236800  25.0700970
  89.6602900  77.7475950  24.0911810 105.0295940  76.9793780  27.2035420
 104.7982030  76.7506530  26.3033370 105.2900490  77.8993330  27.1580310
  89.7808080  75.4218490  28.0963370  88.8864130  75.3885250  28.4357080
  90.3205630  75.6205280  28.8614620 103.4684010  72.2050210  29.9815120
 104.3454190  72.2133610  30.3649120 103.4804850  71.4681050  29.3707470
  88.4054230  75.3355760  15.5926940  87.5018310  75.5985960  15.4178600
  88.8894850  75.6066930  14.8126900 104.9147280  76.0579750  20.8703140
 105.4384760  75.5642400  20.2393310 105.5006700  76.1930110  21.6150710
 105.0937000  76.1419620  24.3922690 104.1439710  76.1083160  24.5067680
 105.2750010  77.0519730  24.1572460  90.9481440  74.3921300  13.5021320
  91.6573140  73.9704520  13.0168600  90.2321380  74.4596530  12.8704670
  90.5955600  70.4460630  12.5423970  91.3183730  70.9869570  12.8605190
  90.8680120  70.1724050  11.6665510 104.4047250  75.3153100  16.8095550
 104.9006370  75.0823970  17.5944430 104.2063320  74.4764940  16.3933190
  90.2847790  69.6966820  22.4446590  90.9323980  69.1464200  22.0041750
  90.7049630  69.9509970  23.2662400 105.8334410  73.9514050  19.3433230
 105.7233690  73.7970090  20.2815500 106.5942000  73.4234990  19.1008640
 104.1800130  69.8908180  25.8016230 104.8172350  70.5042320  26.1675420
 104.3275020  69.9268840  24.8565460 106.7224680  71.7821970  12.5839370
 107.6473990  71.6503150  12.3757660 106.7000470  71.8614790  13.5375820
 106.7963170  72.5532630  15.2096080 106.0014670  72.4877750  15.7388990
 107.0006450  73.4883270  15.1981430 103.7381590  86.5924180  19.2034470
 104.3340660  86.2708750  18.5268890 103.9959740  86.1196000  19.9947740
  90.0379790  69.8522490  25.1871910  89.6894610  70.3086310  25.9530090
  89.7067490  68.9579620  25.2694340  91.6444160  83.0242090  29.3525100
  91.6013790  82.6535000  30.2339560  91.7755170  83.9619660  29.4926920
  95.3450190  84.5801680  24.9534820  95.1041550  84.8476240  24.0665340
  96.2852830  84.7507410  25.0085680  97.5504610  71.0434370  28.7091330
  97.4893500  71.6356200  29.4586740  98.4904990  70.9360330  28.5641590
 100.1879170  70.7004430  28.3483620 100.8019580  71.0183720  27.6864700
 100.7328730  70.2153020  28.9679480 106.6054350  86.5996060  25.7545460
 106.1112630  86.9964930  25.0372590 105.9967640  85.9745270  26.1482740
  90.7100430  69.3798690  28.4622680  91.2583420  69.1986740  27.6988790
  90.7755740  68.5892800  28.9978990  91.4832190  85.9704340  26.4722880
  90.8892510  85.8389040  27.2112920  91.4756030  85.1342480  26.0064980
 100.9287210  69.2636570  24.6752910 100.0547050  69.5971680  24.4725840
 100.8197960  68.7909750  25.5004780 101.8359190  71.4707440  26.0594630
 101.5072550  70.6559200  25.6796360 102.7841490  71.4277250  25.9360320
 104.2893800  87.2419480  23.0332200 103.8296770  87.9935290  22.6590220
 103.6606260  86.5225950  22.9747000  91.1144420  83.3362720  25.4230920
  90.3878480  82.7168010  25.3556870  91.1753570  83.7303330  24.5529000
  94.7189520  85.5507720  22.2080330  95.2354540  84.9395080  21.6828590
  95.3686900  86.0536500  22.6991340  97.4585020  86.4416210  23.0349310
  97.7462830  86.1870510  22.1582320  97.9708240  85.8893570  23.6254880
  98.6762030  70.1806410  23.6145820  97.8933820  70.6551910  23.8942580
  98.3824960  69.2761240  23.5059000 103.2283100  70.8829510  21.6594910
 103.6691190  70.8274610  20.8116510 102.9590690  71.7987520  21.7305090
 105.0921670  70.5144750  19.6703730 105.0310070  69.5705970  19.5234750
 105.8713700  70.6224840  20.2157190  89.3974420  86.6537110  18.6327680
  89.2296460  86.0207790  19.3309570  88.5308930  86.8596510  18.2821870
  90.0202440  70.4853890  16.1359540  90.7781800  70.5982770  15.5623570
  89.5579610  71.3223090  16.0902970  96.5616250  72.5993160  19.1261850
  95.7490760  72.2250050  18.7857730  97.0657890  71.8438240  19.4283040
 101.0641230  69.2635610  20.3644920 101.6670600  69.8355820  20.8393440
 100.3234220  69.8275050  20.1418820 104.2075830  69.6657170  15.6385200
 104.4026460  70.5640620  15.9052630 103.4205700  69.4344250  16.1318150
  91.0037120  85.3470340  16.0777820  90.4784740  85.7278370  15.3739780
  90.9281700  85.9721110  16.7987530  92.3927590  71.0117940  14.6761510
  92.9220350  70.2247740  14.5469460  93.0255910  71.6909130  14.9097040
  94.5865430  70.7493080  17.7306900  93.9568170  70.0480390  17.8977030
  94.0470570  71.5097210  17.5140060  97.5257380  87.3632310  30.4017510
  98.4524690  87.1276580  30.4453470  97.5107810  88.1904310  29.9203540
 105.7602440  86.9057880  17.3991760 105.9354630  86.2195620  16.7552680
 105.0624010  87.4304930  17.0068430  94.7120990  70.0277060  30.1659390
  94.4305260  70.5310660  29.4020210  95.0940690  69.2298810  29.8001520
  93.6030090  87.2952720  14.9527070  94.3348910  87.0112000  14.4050960
  93.8623760  87.0566000  15.8426450  92.7644880  83.4117450  14.9573400
  92.1353760  83.8802550  15.5059230  92.8792710  82.5666670  15.3919590
 101.3136450  69.4430640  30.7439860 101.2001900  69.7625250  31.6391380
 102.1306190  69.8443150  30.4477140 104.0934940  86.5902170  30.2258550
 104.8860260  86.0951400  30.0184510 104.3868090  87.2692310  30.8334160
  98.3512640  79.2402130   2.9883870  97.5754740  78.7602570   3.2782440
  99.0025570  78.5607780   2.8140030  92.3678470  79.5521940   3.8659630
  91.5363350  79.2970650   4.2656140  92.9759450  79.6232710   4.6017550
 102.3720070  83.6462320   1.7683000 101.9101600  82.8749560   2.0970170
 103.1845620  83.6728390   2.2735450  92.3479730  83.5862030   4.0617650
  92.6507770  82.6959770   3.8827870  93.0923320  84.1432250   3.8339900
  88.7403430  77.1129480   3.5341720  89.3119540  76.3451680   3.5345360
  88.7404970  77.4118240   2.6248330  97.7921630  81.9159320   2.9954030
  97.7229910  80.9749260   2.8343160  98.5541490  82.0060730   3.5676600
  89.9828300  72.5213840   5.3210650  89.8031140  71.6239590   5.6013410
  89.5808380  73.0685710   5.9957600  98.8226800  74.7229700   3.2222960
  99.1991620  73.8501580   3.1096630  98.7246310  75.0588400   2.3313400
  90.6014970  75.0174340   3.9292990  91.2825080  75.2812710   4.5480390
  90.2863020  74.1775210   4.2631000 106.8950470  74.2346890   6.7194930
 106.1902640  74.6228600   6.2010040 107.1608390  74.9297180   7.3215860
  93.0775640  70.7040260   7.2829000  93.0794080  71.2212650   6.4774900
  92.2479950  70.2270440   7.2598930  94.3278490  80.3435440   5.4602500
  93.9947870  80.9704360   6.1023570  94.5045170  80.8697320   4.6804170
 102.8412400  74.1580520   2.9278840 102.1367970  74.4465410   3.5081950
 103.2024560  74.9680630   2.5678400  92.7590970  72.4150220   5.2899450
  93.1007780  73.2592270   4.9953320  91.8206780  72.5633960   5.4064790
  93.5397590  82.3116240   7.2751680  94.1571590  82.9867320   6.9936130
  92.6790710  82.7204220   7.1839180 104.4575180  83.7755650   5.1906320
 103.7738700  84.4454760   5.1822990 104.9969470  83.9736300   4.4251180
 105.9099320  73.6035310   3.3188050 104.9624230  73.6374290   3.4503480
 106.2349310  74.4174260   3.7037410 101.9933920  85.6199780   3.9051500
 102.0061080  85.2162070   3.0373760 101.4409140  86.3947070   3.8012930
 101.3919360  80.5229620   5.2334110 101.8088150  80.3089730   4.3987570
 102.1159180  80.7802410   5.8042730 105.3381460  78.9216840   5.3250350
 104.5100090  78.9909930   4.8500480 105.9331940  79.5071150   4.8566180
 102.3023470  75.7086160   6.2705220 101.8894650  76.5339870   6.5245210
 101.5699420  75.1231200   6.0781580  94.9037960  82.1813620   3.2963100
  94.6066250  81.5759090   2.6170880  95.8537780  82.2190930   3.1852460
  93.1484880  75.2689270   4.9122930  93.6999470  75.3784610   4.1376180
  93.6628390  75.6426870   5.6278160 102.9923570  85.7545490   6.9586200
 102.5154130  86.5617680   6.7658810 102.3085360  85.1023820   7.1112410
  93.9956390  81.9195310   9.9470900  93.0984920  82.1435280  10.1944300
  94.0209260  82.0430250   8.9982300  92.8227610  78.7908630   8.5228270
  92.6835380  79.6631430   8.8915670  91.9408970  78.4481440   8.3776210
  94.6207960  84.7330330  10.7313420  94.5923390  85.1373280   9.8641850
  94.4572930  83.8040690  10.5685020 106.5722780  85.5157430  12.0277590
 107.0482500  85.9940320  12.7066670 107.1929940  85.4474920  11.3023090
  88.7746260  80.5606180   4.4399180  88.8526680  80.6954950   3.4954900
  89.3887940  79.8522070   4.6327300 105.9756030  82.7070280   9.1877600
 106.1019090  82.4682160   8.2694780 106.0177410  81.8754820   9.6599680
  99.8372770  86.4098280   7.7572410 100.3517440  86.3206290   8.5594840
  98.9941850  86.7557980   8.0500320 105.8280040  74.7602740  10.1527340
 105.2124310  75.2682410   9.6242800 105.5076460  73.8601070  10.0953280
  88.8305780  81.6020350   6.9793640  88.9936820  81.1325710   6.1613010
  89.2958230  81.0943910   7.6442480  93.6024550  70.7326110   2.0154210
  93.1592700  71.5135650   1.6838730  94.1609540  71.0556000   2.7225150
  97.8894360  73.5994630   7.6189530  97.4273730  73.8077650   8.4309470
  97.4872470  72.7853980   7.3160200 102.8898870  74.8203580   8.7486190
 102.0392460  74.5209330   9.0695260 102.7300660  75.0645590   7.8370010
  99.9848580  76.3205330  10.8484980 100.3101990  75.4869080  10.5087210
 100.7728910  76.8433850  10.9963310  95.6400450  71.2773440   3.8743810
  95.9372780  72.1836270   3.7935830  96.1886010  70.7892220   3.2603380
  95.8337980  76.7545260  10.4095730  95.7381580  75.8139990  10.2596130
  96.6769960  76.9760330  10.0143800  90.9648520  73.1658930   8.5629510
  90.5711910  74.0134140   8.7702290  90.2766920  72.5285300   8.7538150
  97.5393570  73.2493900  11.6326250  96.8491890  73.0566100  12.2672340
  98.2825870  73.5328540  12.1650550  88.2665570  71.0887390   2.5959590
  87.9778620  71.6590250   3.3084570  89.0111330  70.6091840   2.9590820
  99.8156540  77.0892340   4.4680170  99.0837660  77.5979150   4.8170270
  99.4180880  76.2722320   4.1668950  96.2533930  73.7646540   2.8732660
  96.2569990  73.3236490   2.0237200  97.1485050  74.0863870   2.9804480
  92.1036310  73.6473030   1.8326870  91.7636360  74.1248260   2.5893920
  91.3413630  73.1938150   1.4727970 100.2782450  72.5426020   3.8803110
 100.2955190  72.9934670   4.7244960 100.0298030  71.6431660   4.0936550
 103.7053200  69.9558200   9.7189490 104.0298970  69.2247860  10.2447470
 103.7409710  69.6371840   8.8170480  90.4044760  80.9771780   9.1389450
  90.0199550  80.3365450   9.7372410  90.7156950  81.6807900   9.7084180
  96.5541900  77.8248320   4.6198070  96.9212030  77.3506890   5.3659410
  96.3646960  78.6989890   4.9606410  94.3441270  76.8656960   6.9382280
  94.0398340  77.7448940   7.1632640  95.2987730  76.9256750   6.9739720
 103.6311040  80.0683310   3.3275520 104.3510160  80.5638600   2.9371630
 103.4292860  79.3901200   2.6829390  99.0129840  80.1392370   9.2144520
  98.9467150  79.2188040   8.9602110  98.3834980  80.2367810   9.9289160
  90.4005000  77.7059700   8.0853640  90.0419940  78.3713550   8.6726980
  90.1059560  76.8743250   8.4566260  93.6018120  78.1643940  10.9693190
  93.3018260  78.3101120  10.0721010  94.3729360  77.6049230  10.8766580
  98.9446570  82.9612940   8.9648320  98.9591110  82.0293900   8.7467230
  98.2371670  83.0472700   9.6038090 105.1557780  79.6020280   8.3116900
 104.4305970  80.1949060   8.1146290 105.6833240  79.5943820   7.5130270
  98.3780470  84.6030510   6.0588820  99.0222690  84.8089890   6.7362240
  98.7409910  83.8418910   5.6059670  99.6512550  82.6062860   4.7766270
 100.2934780  81.9056020   4.8898440 100.1761900  83.3861300   4.5963160
 101.4250170  83.4057760   7.9802330 101.7606410  83.9924450   8.6580250
 100.5050510  83.2750470   8.2100120  88.9753570  71.1952940   8.7625740
  88.2612090  71.3949860   9.3678350  89.3948610  70.4192510   9.1340540
  89.2626160  85.1833200   9.7492270  89.3717280  84.2427940   9.6087660
  88.6106720  85.4487950   9.1006000  97.2538750  83.4549090  11.1490390
  96.9335620  82.7358330  11.6936080  96.5797110  84.1304160  11.2226450
 100.4692350  73.6875250   6.5127190 100.8373170  72.8670460   6.8406760
  99.6090550  73.7477140   6.9282840  97.4294340  76.3414840   6.7365160
  97.9279590  76.8160660   7.4017010  97.5717290  75.4178360   6.9435190
 104.6361200  72.5582800   7.5793550 104.1334800  73.2988200   7.9187360
 105.4517860  72.9466800   7.2630340 104.9308790  84.9724830   2.7009170
 105.0556210  85.7956000   3.1732980 105.7974350  84.7615560   2.3533320
  92.4026320  87.0656040   2.3726300  93.1388800  86.5171500   2.6434870
  92.7867240  87.9312050   2.2332290  91.4084600  86.2502110  11.5611880
  92.2097330  86.5714160  11.9747280  90.8936420  85.8897690  12.2831790
 100.2449230  82.3581980  11.5087290  99.6387390  82.3813580  10.7683040
  99.9403340  81.6265020  12.0454540 101.6749600  86.0862270  10.1196700
 102.6271350  86.0020290  10.0696940 101.5277820  86.7503980  10.7930490
  89.1282410  78.7375570  10.5047930  89.6321430  78.1582850  11.0764160
  88.3889830  79.0215800  11.0424300  96.1820350  80.1446560  10.0383450
  95.4166020  80.7131560   9.9538120  96.3636310  79.8522770   9.1451680
 103.3243700  81.8751890  10.5958470 104.0653170  82.2127650  10.0925930
 102.5616380  82.0443950  10.0428240  91.1605490  76.8805160  11.3998000
  91.2010830  76.5819030  12.3083230  92.0150990  77.2812770  11.2405520
  93.1011300  75.4597260   9.3672490  92.5707760  74.9688210   8.7395830
  93.7699370  75.8881460   8.8330420 101.9989360  79.9266720   9.1313680
 102.4130380  80.0811800   9.9804100 101.0640360  80.0521940   9.2939460
 102.4711530  77.2662880  11.1352830 103.0532300  76.5115200  11.0473310
 102.6473300  77.7970320  10.3584310  93.5883600  72.4259630   9.4469780
  93.4940470  71.8080380   8.7220650  93.0080990  73.1525920   9.2199690
  96.3545040  70.9832870   6.4797170  95.9062340  71.0057130   5.6342720
  95.7210240  70.5851890   7.0767470  96.7604590  79.8787200   7.1009610
  97.1792700  80.7219930   6.9285850  95.8413220  80.0159240   6.8716390
  99.0968490  77.6103380   8.4847450  99.2164700  77.0144520   9.2242290
  99.9562490  77.6473070   8.0648750 101.4356390  78.1640570   7.0609960
 100.9091610  78.6883190   6.4575100 101.7787730  78.7967960   7.6919690
  94.6112010  86.1840210   8.2167340  94.0733100  86.9086270   7.8976040
  94.8645970  85.7070550   7.4264680  95.8637260  74.1524730   9.7423270
  96.4536950  73.8440580  10.4301090  95.0457500  73.6804480   9.8983170
 100.6830690  73.7690540   9.9756290  99.9946210  73.1072080   9.9106280
 101.4036710  73.3228810  10.4204750  97.4674220  87.4191420   8.4753990
  97.3932920  88.3226560   8.7826360  96.5653060  87.1003320   8.4476060
  88.8701510  84.7466010   1.7787610  89.2004520  83.8787070   1.5466250
  89.2992510  84.9524530   2.6092570  89.3591720  85.6136600   4.5169240
  88.9222710  85.7937400   5.3493390  89.9269400  86.3711220   4.3750960
 104.9953900  85.1153600   8.8046550 104.3955890  85.1746160   8.0610470
 105.1247800  84.1758580   8.9343400 103.6805540  81.8405580   6.9022710
 102.8665380  82.2702740   7.1648500 104.0879740  82.4523990   6.2891760
  90.2292080  78.5109400   5.4161460  90.5965120  78.4236800   6.2957480
  89.6602900  77.7475950   5.3168320 105.0295940  76.9793780   8.4291930
 104.7982030  76.7506530   7.5289880 105.2900490  77.8993330   8.3836820
  89.7808080  75.4218490   9.3219880  88.8864130  75.3885250   9.6613590
  90.3205630  75.6205280  10.0871130 103.4684010  72.2050210  11.2071630
 104.3454190  72.2133610  11.5905630 103.4804850  71.4681050  10.5963980
 104.9147280  76.0579750   2.0959650 105.4384760  75.5642400   1.4649820
 105.5006700  76.1930110   2.8407220 105.0937000  76.1419620   5.6179200
 104.1439710  76.1083160   5.7324190 105.2750010  77.0519730   5.3828970
  90.2847790  69.6966820   3.6703100  90.9323980  69.1464200   3.2298260
  90.7049630  69.9509970   4.4918910 104.1800130  69.8908180   7.0272740
 104.8172350  70.5042320   7.3931930 104.3275020  69.9268840   6.0821970
  90.0379790  69.8522490   6.4128420  89.6894610  70.3086310   7.1786600
  89.7067490  68.9579620   6.4950850  91.6444160  83.0242090  10.5781610
  91.6013790  82.6535000  11.4596070  91.7755170  83.9619660  10.7183430
  95.3450190  84.5801680   6.1791330  95.1041550  84.8476240   5.2921850
  96.2852830  84.7507410   6.2342190  97.5504610  71.0434370   9.9347840
  97.4893500  71.6356200  10.6843250  98.4904990  70.9360330   9.7898100
 100.1879170  70.7004430   9.5740130 100.8019580  71.0183720   8.9121210
 100.7328730  70.2153020  10.1935990 106.6054350  86.5996060   6.9801970
 106.1112630  86.9964930   6.2629100 105.9967640  85.9745270   7.3739250
  90.7100430  69.3798690   9.6879190  91.2583420  69.1986740   8.9245300
  90.7755740  68.5892800  10.2235500  91.4832190  85.9704340   7.6979390
  90.8892510  85.8389040   8.4369430  91.4756030  85.1342480   7.2321490
 100.9287210  69.2636570   5.9009420 100.0547050  69.5971680   5.6982350
 100.8197960  68.7909750   6.7261290 101.8359190  71.4707440   7.2851140
 101.5072550  70.6559200   6.9052870 102.7841490  71.4277250   7.1616830
 104.2893800  87.2419480   4.2588710 103.8296770  87.9935290   3.8846730
 103.6606260  86.5225950   4.2003510  91.1144420  83.3362720   6.6487430
  90.3878480  82.7168010   6.5813380  91.1753570  83.7303330   5.7785510
  94.7189520  85.5507720   3.4336840  95.2354540  84.9395080   2.9085100
  95.3686900  86.0536500   3.9247850  97.4585020  86.4416210   4.2605820
  97.7462830  86.1870510   3.3838830  97.9708240  85.8893570   4.8511390
  98.6762030  70.1806410   4.8402330  97.8933820  70.6551910   5.1199090
  98.3824960  69.2761240   4.7315510 103.2283100  70.8829510   2.8851420
 103.6691190  70.8274610   2.0373020 102.9590690  71.7987520   2.9561600
  97.5257380  87.3632310  11.6274020  98.4524690  87.1276580  11.6709980
  97.5107810  88.1904310  11.1460050  94.7120990  70.0277060  11.3915900
  94.4305260  70.5310660  10.6276720  95.0940690  69.2298810  11.0258030
 101.3136450  69.4430640  11.9696370 101.2001900  69.7625250  12.8647890
 102.1306190  69.8443150  11.6733650 104.0934940  86.5902170  11.4515060
 104.8860260  86.0951400  11.2441020 104.3868090  87.2692310  12.0590670
 100.2194600  58.6879620  57.4305070 100.1388650  57.7734230  57.1596780
  99.8059020  59.1846690  56.7244780  98.3512640  60.4658640  59.3114340
  97.5754740  59.9859080  59.6012910  99.0025570  59.7864290  59.1370500
 102.3720070  64.8718830  58.0913470 101.9101600  64.1006070  58.4200640
 103.1845620  64.8984900  58.5965920  90.7770420  55.7380340  53.9732490
  89.8887120  56.0796310  53.8712370  91.0611610  55.5380660  53.0813320
  88.7403430  58.3385990  59.8572190  89.3119540  57.5708190  59.8575830
  88.7404970  58.6374750  58.9478800  98.5983380  67.1576840  57.7117460
  97.9794820  67.6134340  57.1411900  99.4535160  67.3128300  57.3107160
  97.7921630  63.1415830  59.3184500  97.7229910  62.2005770  59.1573630
  98.5541490  63.2317240  59.8907070  98.8226800  55.9486210  59.5453430
  99.1991620  55.0758090  59.4327100  98.7246310  56.2844910  58.6543870
  92.9531810  54.3211840  55.0070870  93.0598560  55.2215570  55.3139630
  92.0424170  54.2729810  54.7165520 102.6050920  53.4436650  56.4781770
 103.4260540  52.9533220  56.5207250 102.6385000  54.0334310  57.2313610
  94.7939540  57.2898210  59.3396050  95.3017760  57.7879180  59.9801070
  95.3252780  56.5133410  59.1635410  99.4646730  62.0416080  55.1049370
  98.8464000  62.5065530  54.5412090  99.9769980  62.7343560  55.5218880
 102.8412400  55.3837030  59.2509310 102.1367970  55.6721920  59.8312420
 103.2024560  56.1937140  58.8908870  88.8329930  62.7272610  52.4789000
  88.4557910  63.2159710  51.7473900  89.0903000  63.3997890  53.1095530
 105.9099320  54.8291820  59.6418520 104.9624230  54.8630800  59.7733950
 106.2349310  55.6430770  60.0267880  96.4418860  51.1289000  57.9374510
  96.7493840  50.5735890  57.2210010  95.5119560  51.2633460  57.7547500
 101.9933920  66.8456290  60.2281970 102.0061080  66.4418580  59.3604230
 101.4409140  67.6203580  60.1243400 103.2879340  63.5672510  55.3172140
 103.1775670  62.6246840  55.4421560 103.2847590  63.9288150  56.2034900
  98.8299620  59.1937830  54.6734630  97.9028900  59.1275210  54.9023100
  98.9824440  60.1317960  54.5589870  98.8168700  55.4654830  51.6701790
  97.8772370  55.6268790  51.7554250  99.1351960  56.1840510  51.1237780
 102.8596910  60.7558130  55.1769880 102.2409330  60.4177680  54.5296180
 102.8421360  60.1117890  55.8849070  94.4356260  59.7202570  57.4554360
  94.0313260  59.0079820  56.9600260  94.5219380  59.3755810  58.3442400
  94.9037960  63.4070130  59.6193570  94.6066250  62.8015600  58.9401350
  95.8537780  63.4447440  59.5082930 101.0361610  59.9944940  52.1842630
 101.4754890  59.1567370  52.0380450 101.7490030  60.6274340  52.2706770
  99.1456990  64.9341010  56.1523870  99.5852900  65.6765340  55.7379260
  99.0843880  65.1767580  57.0762830 104.6178750  51.2487750  50.4983670
 104.3051410  51.3414580  51.3982740 105.3791220  51.8268780  50.4481100
  91.1360890  58.6147550  54.9561010  91.0158490  59.3409640  54.3442280
  90.8261780  57.8450460  54.4788920  90.0193890  63.4862880  57.1735830
  89.6121970  63.6277470  56.3189430  90.9106900  63.2023040  56.9707040
 101.8127170  67.9210130  53.5086880 101.6528310  67.6313070  54.4068710
 101.6473880  67.1450260  52.9732110  94.2915550  67.7008660  55.2858500
  94.1158030  66.7844200  55.0726300  93.4371290  68.0595950  55.5256300
 101.5153300  65.4297690  52.0684880 100.8218460  65.4274980  51.4087160
 102.2576160  65.0057010  51.6379050 101.0803230  67.0560400  56.1433370
 101.5360180  66.2749780  56.4571990 101.4195750  67.7667220  56.6874550
  93.6024550  51.9582620  58.3384680  93.1592700  52.7392160  58.0069200
  94.1609540  52.2812510  59.0455620  96.7183370  51.5793320  53.2190510
  96.0937550  51.5753190  53.9443820  96.6313490  50.7124280  52.8226480
  95.6400450  52.5029950  60.1974280  95.9372780  53.4092780  60.1166300
  96.1886010  52.0148730  59.5833850  93.3938770  57.0816190  56.0665930
  93.1679690  56.8653360  56.9712550  92.6131300  57.5144650  55.7211900
 100.6236530  57.0879560  54.6656580 100.0245420  57.8115360  54.4820200
 101.1716140  57.0256340  53.8833030  99.2301400  55.7243100  56.6959860
  99.6230970  56.0415300  55.8828550  99.5918250  54.8454980  56.8104380
  88.2665570  52.3143900  58.9190060  87.9778620  52.8846760  59.6315040
  89.0111330  51.8348350  59.2821290  88.4535800  56.2564020  50.1292780
  88.3710470  57.1994780  50.2707770  88.1018860  56.1138930  49.2505130
  96.2533930  54.9903050  59.1963130  96.2569990  54.5493000  58.3467670
  97.1485050  55.3120380  59.3034950  92.1036310  54.8729540  58.1557340
  91.7636360  55.3504770  58.9124390  91.3413630  54.4194660  57.7958440
  96.3154080  55.9915130  52.1869890  96.4366900  55.9501610  53.1355710
  95.9302590  56.8539280  52.0316620  95.3275580  58.3016270  51.5853190
  94.7592480  57.8534520  50.9589100  96.0364580  58.6609050  51.0518340
  89.4182390  53.7948520  57.0722010  89.1329310  53.4304190  57.9100630
  89.3561250  53.0628980  56.4585150  92.8723060  62.2974460  53.8579600
  92.0985320  61.7572080  53.6978320  93.6017690  61.7781070  53.5197360
 103.6311040  61.2939820  59.6505990 104.3510160  61.7895110  59.2602100
 103.4292860  60.6157710  59.0059860  99.0920980  52.6877780  53.7935380
  98.2785590  52.1890950  53.7180690  98.8982930  53.5276030  53.3771730
 101.8069370  57.0597430  52.0897540 102.6948990  57.3714660  51.9148880
 101.7774460  56.1869680  51.6978120  92.9160460  61.9654840  57.4958410
  93.4339130  61.1623100  57.4415300  92.4644480  61.9033980  58.3375240
  97.8029960  63.2321120  52.7685710  98.1445660  63.9763350  52.2729030
  96.9742670  63.5452240  53.1310540 104.0783640  58.3709270  51.5577400
 103.9947360  58.8023490  50.7073840 104.7977830  58.8307620  51.9904220
 105.1070890  65.2251530  54.2859530 104.4647050  64.5707150  54.5603250
 104.7201550  65.6306620  53.5100200 100.6857370  62.5536960  58.1331220
 101.0381190  61.9565090  57.4732590  99.8019700  62.2281190  58.3039470
  96.7720650  63.3134650  55.5401630  97.4591780  63.8603860  55.9209220
  95.9853070  63.8575380  55.5751240  88.9113050  58.9307470  51.0318710
  89.7807900  59.2132270  51.3154630  88.4203370  59.7443340  50.9167520
  96.0747860  60.3180680  55.1526990  96.5310640  61.1285930  55.3787180
  95.7236070  60.0003820  55.9845480  91.9759640  50.6618330  55.6249510
  91.8474270  50.6536230  56.5734430  91.1521660  51.0001420  55.2740520
 103.4968270  64.1167990  50.8235880 103.2705850  63.3998430  51.4160520
 103.1064470  63.8680430  49.9857630  89.2784300  68.1434850  51.5980340
  89.6381940  68.7424190  50.9437610  89.1376640  68.6894740  52.3715370
 103.0784520  62.0339930  52.4850040 102.7906220  62.4952620  53.2727920
 103.8736690  61.5737700  52.7534260  95.2952920  65.5266050  52.4154010
  95.2863020  66.2595740  51.7998520  94.3751280  65.2797630  52.5080970
  90.8959560  60.7480940  53.1600770  90.2887510  61.4879840  53.1696070
  91.3708910  60.8380300  52.3338970 103.8354380  53.8688700  53.6445220
 103.2067540  53.9734370  52.9303450 103.3406300  54.0885480  54.4339100
  98.2812520  65.5894290  51.0779200  98.3824500  65.3858280  50.1481180
  97.3814260  65.3352570  51.2826980  95.8038410  56.1474650  55.0603100
  95.0954560  56.6160990  55.5016710  96.0882890  55.4896660  55.6948290
  99.8353840  52.8725310  56.4998890  99.7121620  52.8911440  55.5508400
 100.7838400  52.9204250  56.6197290  96.9230630  68.1080610  55.7726870
  97.1772130  68.0702000  54.8506240  95.9743110  67.9813940  55.7655120
  94.0073430  54.4559730  52.4353810  94.8563960  54.8929880  52.3694000
  93.6404700  54.7679990  53.2625870 102.9283210  59.0272490  57.3485380
 101.9873350  59.0422720  57.5233070 103.2427280  58.2408450  57.7945680
  92.9064850  60.7092090  50.9089340  93.6728120  60.5973450  51.4714770
  92.9839540  60.0130060  50.2566110  91.6011610  58.1417160  51.5922230
  91.6815200  57.1944670  51.7039630  92.4931360  58.4724040  51.6982890
 104.9308790  66.1981340  59.0239640 105.0556210  67.0212510  59.4963450
 105.7974350  65.9872070  58.6763790  92.4026320  68.2912550  58.6956770
  93.1388800  67.7428010  58.9665340  92.7867240  69.1568560  58.5562760
  89.2871800  64.3586120  54.5698280  88.3611580  64.6007260  54.5603690
  89.7528230  65.1860380  54.4483030  95.5128630  67.4642860  50.5182340
  96.3057240  67.7531690  50.0664130  94.9932980  67.0335030  49.8394820
 104.5658800  66.6912990  51.9419080 104.2800310  66.2778130  51.1273260
 104.3678350  67.6200700  51.8219600  96.0306030  62.6846270  50.3824690
  95.9256670  62.0698620  51.1086070  95.8630250  62.1612160  49.5987700
  99.2708760  61.7466300  50.9866680  98.7218860  62.1935600  51.6309420
  99.8928020  61.2415550  51.5104350  94.9383880  60.7057220  52.8831980
  95.3600300  60.5397090  53.7263370  95.0634720  59.8957450  52.3887120
  97.4511520  59.7294830  50.1309080  97.9717180  59.0143850  49.7650230
  98.0979920  60.3680700  50.4309590  93.8342780  56.7790450  49.8290140
  93.6331840  55.9157810  50.1903480  93.6634830  56.6923810  48.8911740
 101.3131090  51.5898680  52.3577020 101.5933380  50.7466580  52.7136440
 100.5396820  51.8221790  52.8715770  92.6325580  53.8791070  49.8168020
  92.9351480  53.8858500  48.9087170  93.3720170  53.5288930  50.3135680
  95.8510510  52.8225690  50.8024220  95.5032510  52.1449680  50.2226670
  96.0523280  52.3615200  51.6167610  98.0159550  67.8106440  52.4210820
  98.9110340  68.1491410  52.4429580  98.0477180  67.0885850  51.7935100
  91.6555710  63.1833490  50.6497820  92.0930580  63.7263160  51.3055400
  92.1403440  62.3580440  50.6594160  88.8701510  65.9722520  58.1018080
  89.2004520  65.1043580  57.8696720  89.2992510  66.1781040  58.9323040
  93.4663430  64.3031530  55.7620050  93.1658970  64.1796500  56.6623960
  93.3600920  63.4440120  55.3535780 106.2355350  64.0827930  50.4646730
 105.4048310  64.1504580  50.9353960 106.4127180  64.9732050  50.1613590
 105.6911810  60.8275410  52.9680930 106.4530720  61.3972060  53.0740620
 105.7066180  60.2602610  53.7389240  89.1916150  59.3513340  57.1988590
  88.5364990  59.0824980  56.5548290  90.0294100  59.2417820  56.7490570
 106.6971780  61.6825510  57.8122860 107.0680610  60.8992830  57.4058830
 107.3373710  62.3714610  57.6340160 105.7430980  61.1209780  50.1253450
 106.0179820  62.0288660  49.9972670 105.5541720  61.0572310  51.0615440
 102.1406590  54.1454630  51.4207080 102.5591470  53.9585610  50.5803740
 101.8342650  53.2933680  51.7310010 105.6396320  59.0578770  55.1182880
 105.2639920  58.2906700  54.6864170 104.9099440  59.4401470  55.6057810
  88.4054230  56.5612270  53.1413920  87.5018310  56.8242470  52.9665580
  88.8894850  56.8323440  52.3613880 104.9147280  57.2836260  58.4190120
 105.4384760  56.7898910  57.7880290 105.5006700  57.4186620  59.1637690
  90.9481440  55.6177810  51.0508300  91.6573140  55.1961030  50.5655580
  90.2321380  55.6853040  50.4191650  90.5955600  51.6717140  50.0910950
  91.3183730  52.2126080  50.4092170  90.8680120  51.3980560  49.2152490
 104.4047250  56.5409610  54.3582530 104.9006370  56.3080480  55.1431410
 104.2063320  55.7021450  53.9420170 105.8334410  55.1770560  56.8920210
 105.7233690  55.0226600  57.8302480 106.5942000  54.6491500  56.6495620
 106.7224680  53.0078480  50.1326350 107.6473990  52.8759660  49.9244640
 106.7000470  53.0871300  51.0862800 106.7963170  53.7789140  52.7583060
 106.0014670  53.7134260  53.2875970 107.0006450  54.7139780  52.7468410
 103.7381590  67.8180690  56.7521450 104.3340660  67.4965260  56.0755870
 103.9959740  67.3452510  57.5434720  94.7189520  66.7764230  59.7567310
  95.2354540  66.1651590  59.2315570  95.3686900  67.2793010  60.2478320
 103.2283100  52.1086020  59.2081890 103.6691190  52.0531120  58.3603490
 102.9590690  53.0244030  59.2792070 105.0921670  51.7401260  57.2190710
 105.0310070  50.7962480  57.0721730 105.8713700  51.8481350  57.7644170
  89.3974420  67.8793620  56.1814660  89.2296460  67.2464300  56.8796550
  88.5308930  68.0853020  55.8308850  90.0202440  51.7110400  53.6846520
  90.7781800  51.8239280  53.1110550  89.5579610  52.5479600  53.6389950
  96.5616250  53.8249670  56.6748830  95.7490760  53.4506560  56.3344710
  97.0657890  53.0694750  56.9770020 101.0641230  50.4892120  57.9131900
 101.6670600  51.0612330  58.3880420 100.3234220  51.0531560  57.6905800
 104.2075830  50.8913680  53.1872180 104.4026460  51.7897130  53.4539610
 103.4205700  50.6600760  53.6805130  91.0037120  66.5726850  53.6264800
  90.4784740  66.9534880  52.9226760  90.9281700  67.1977620  54.3474510
  92.3927590  52.2374450  52.2248490  92.9220350  51.4504250  52.0956440
  93.0255910  52.9165640  52.4584020  94.5865430  51.9749590  55.2793880
  93.9568170  51.2736900  55.4464010  94.0470570  52.7353720  55.0627040
 105.7602440  68.1314390  54.9478740 105.9354630  67.4452130  54.3039660
 105.0624010  68.6561440  54.5555410  93.6030090  68.5209230  52.5014050
  94.3348910  68.2368510  51.9537940  93.8623760  68.2822510  53.3913430
  92.7644880  64.6373960  52.5060380  92.1353760  65.1059060  53.0546210
  92.8792710  63.7923180  52.9406570 100.2194600  58.6879620  38.6561580
 100.1388650  57.7734230  38.3853290  99.8059020  59.1846690  37.9501290
  98.3512640  60.4658640  40.5370850  97.5754740  59.9859080  40.8269420
  99.0025570  59.7864290  40.3627010 102.6050920  53.4436650  37.7038280
 103.4260540  52.9533220  37.7463760 102.6385000  54.0334310  38.4570120
  94.3278490  61.5691950  43.0089480  93.9947870  62.1960870  43.6510550
  94.5045170  62.0953830  42.2291150  93.5397590  63.5372750  44.8238660
  94.1571590  64.2123830  44.5423110  92.6790710  63.9460730  44.7326160
  88.8329930  62.7272610  33.7045510  88.4557910  63.2159710  32.9730410
  89.0903000  63.3997890  34.3352040 104.4575180  65.0012160  42.7393300
 103.7738700  65.6711270  42.7309970 104.9969470  65.1992810  41.9738160
 101.3919360  61.7486130  42.7821090 101.8088150  61.5346240  41.9474550
 102.1159180  62.0058920  43.3529710  98.8299620  59.1937830  35.8991140
  97.9028900  59.1275210  36.1279610  98.9824440  60.1317960  35.7846380
 102.9923570  66.9802000  44.5073180 102.5154130  67.7874190  44.3145790
 102.3085360  66.3280330  44.6599390  93.9956390  63.1451820  47.4957880
  93.0984920  63.3691790  47.7431280  94.0209260  63.2686760  46.5469280
 101.0361610  59.9944940  33.4099140 101.4754890  59.1567370  33.2636960
 101.7490030  60.6274340  33.4963280  92.8227610  60.0165140  46.0715250
  92.6835380  60.8887940  46.4402650  91.9408970  59.6737950  45.9263190
  94.6207960  65.9586840  48.2800400  94.5923390  66.3629790  47.4128830
  94.4572930  65.0297200  48.1172000 106.5722780  66.7413940  49.5764570
 107.0482500  67.2196830  50.2553650 107.1929940  66.6731430  48.8510070
 105.9756030  63.9326790  46.7364580 106.1019090  63.6938670  45.8181760
 106.0177410  63.1011330  47.2086660  99.8372770  67.6354790  45.3059390
 100.3517440  67.5462800  46.1081820  98.9941850  67.9814490  45.5987300
 101.5153300  65.4297690  33.2941390 100.8218460  65.4274980  32.6343670
 102.2576160  65.0057010  32.8635560 105.8280040  55.9859250  47.7014320
 105.2124310  56.4938920  47.1729780 105.5076460  55.0857580  47.6440260
  88.8305780  62.8276860  44.5280620  88.9936820  62.3582220  43.7099990
  89.2958230  62.3200420  45.1929460  99.9848580  57.5461840  48.3971960
 100.3101990  56.7125590  48.0574190 100.7728910  58.0690360  48.5450290
 100.6236530  57.0879560  35.8913090 100.0245420  57.8115360  35.7076710
 101.1716140  57.0256340  35.1089540  95.8337980  57.9801770  47.9582710
  95.7381580  57.0396500  47.8083110  96.6769960  58.2016840  47.5630780
  99.2301400  55.7243100  37.9216370  99.6230970  56.0415300  37.1085060
  99.5918250  54.8454980  38.0360890  97.5393570  54.4750410  49.1813230
  96.8491890  54.2822610  49.8159320  98.2825870  54.7585050  49.7137530
 103.7053200  51.1814710  47.2676470 104.0298970  50.4504370  47.7934450
 103.7409710  50.8628350  46.3657460  90.4044760  62.2028290  46.6876430
  90.0199550  61.5621960  47.2859390  90.7156950  62.9064410  47.2571160
  89.4182390  53.7948520  38.2978520  89.1329310  53.4304190  39.1357140
  89.3561250  53.0628980  37.6841660 103.6311040  61.2939820  40.8762500
 104.3510160  61.7895110  40.4858610 103.4292860  60.6157710  40.2316370
  99.0129840  61.3648880  46.7631500  98.9467150  60.4444550  46.5089090
  98.3834980  61.4624320  47.4776140 101.8069370  57.0597430  33.3154050
 102.6948990  57.3714660  33.1405390 101.7774460  56.1869680  32.9234630
  90.4005000  58.9316210  45.6340620  90.0419940  59.5970060  46.2213960
  90.1059560  58.0999760  46.0053240  93.6018120  59.3900450  48.5180170
  93.3018260  59.5357630  47.6207990  94.3729360  58.8305740  48.4253560
  98.9446570  64.1869450  46.5135300  98.9591110  63.2550410  46.2954210
  98.2371670  64.2729210  47.1525070 104.0783640  58.3709270  32.7833910
 103.9947360  58.8023490  31.9330350 104.7977830  58.8307620  33.2160730
 105.1070890  65.2251530  35.5116040 104.4647050  64.5707150  35.7859760
 104.7201550  65.6306620  34.7356710  98.3780470  65.8287020  43.6075800
  99.0222690  66.0346400  44.2849220  98.7409910  65.0675420  43.1546650
  99.6512550  63.8319370  42.3253250 100.2934780  63.1312530  42.4385420
 100.1761900  64.6117810  42.1450140 103.4968270  64.1167990  32.0492390
 103.2705850  63.3998430  32.6417030 103.1064470  63.8680430  31.2114140
 101.4250170  64.6314270  45.5289310 101.7606410  65.2180960  46.2067230
 100.5050510  64.5006980  45.7587100  89.2784300  68.1434850  32.8236850
  89.6381940  68.7424190  32.1694120  89.1376640  68.6894740  33.5971880
 103.0784520  62.0339930  33.7106550 102.7906220  62.4952620  34.4984430
 103.8736690  61.5737700  33.9790770  89.2626160  66.4089710  47.2979250
  89.3717280  65.4684450  47.1574640  88.6106720  66.6744460  46.6492980
  97.2538750  64.6805600  48.6977370  96.9335620  63.9614840  49.2423060
  96.5797110  65.3560670  48.7713430 103.8354380  53.8688700  34.8701730
 103.2067540  53.9734370  34.1559960 103.3406300  54.0885480  35.6595610
  98.2812520  65.5894290  32.3035710  98.3824500  65.3858280  31.3737690
  97.3814260  65.3352570  32.5083490 102.9283210  59.0272490  38.5741890
 101.9873350  59.0422720  38.7489580 103.2427280  58.2408450  39.0202190
  92.9064850  60.7092090  32.1345850  93.6728120  60.5973450  32.6971280
  92.9839540  60.0130060  31.4822620 104.9308790  66.1981340  40.2496150
 105.0556210  67.0212510  40.7219960 105.7974350  65.9872070  39.9020300
  91.4084600  67.4758620  49.1098860  92.2097330  67.7970670  49.5234260
  90.8936420  67.1154200  49.8318770  95.5128630  67.4642860  31.7438850
  96.3057240  67.7531690  31.2920640  94.9932980  67.0335030  31.0651330
 100.2449230  63.5838490  49.0574270  99.6387390  63.6070090  48.3170020
  99.9403340  62.8521530  49.5941520 101.6749600  67.3118780  47.6683680
 102.6271350  67.2276800  47.6183920 101.5277820  67.9760490  48.3417470
 104.5658800  66.6912990  33.1675590 104.2800310  66.2778130  32.3529770
 104.3678350  67.6200700  33.0476110  89.1282410  59.9632080  48.0534910
  89.6321430  59.3839360  48.6251140  88.3889830  60.2472310  48.5911280
  96.0306030  62.6846270  31.6081200  95.9256670  62.0698620  32.3342580
  95.8630250  62.1612160  30.8244210  96.1820350  61.3703070  47.5870430
  95.4166020  61.9388070  47.5025100  96.3636310  61.0779280  46.6938660
  99.2708760  61.7466300  32.2123190  98.7218860  62.1935600  32.8565930
  99.8928020  61.2415550  32.7360860 103.3243700  63.1008400  48.1445450
 104.0653170  63.4384160  47.6412910 102.5616380  63.2700460  47.5915220
  91.1605490  58.1061670  48.9484980  91.2010830  57.8075540  49.8570210
  92.0150990  58.5069280  48.7892500  93.1011300  56.6853770  46.9159470
  92.5707760  56.1944720  46.2882810  93.7699370  57.1137970  46.3817400
  97.4511520  59.7294830  31.3565590  97.9717180  59.0143850  30.9906740
  98.0979920  60.3680700  31.6566100 101.9989360  61.1523230  46.6800660
 102.4130380  61.3068310  47.5291080 101.0640360  61.2778450  46.8426440
 102.4711530  58.4919390  48.6839810 103.0532300  57.7371710  48.5960290
 102.6473300  59.0226830  47.9071290  96.7604590  61.1043710  44.6496590
  97.1792700  61.9476440  44.4772830  95.8413220  61.2415750  44.4203370
  94.6112010  67.4096720  45.7654320  94.0733100  68.1342780  45.4463020
  94.8645970  66.9327060  44.9751660 100.6830690  54.9947050  47.5243270
  99.9946210  54.3328590  47.4593260 101.4036710  54.5485320  47.9691730
  97.4674220  68.6447930  46.0240970  97.3932920  69.5483070  46.3313340
  96.5653060  68.3259830  45.9963040  91.6555710  63.1833490  31.8754330
  92.0930580  63.7263160  32.5311910  92.1403440  62.3580440  31.8850670
 104.9953900  66.3410110  46.3533530 104.3955890  66.4002670  45.6097450
 105.1247800  65.4015090  46.4830380 106.2355350  64.0827930  31.6903240
 105.4048310  64.1504580  32.1610470 106.4127180  64.9732050  31.3870100
 105.6911810  60.8275410  34.1937440 106.4530720  61.3972060  34.2997130
 105.7066180  60.2602610  34.9645750 106.6971780  61.6825510  39.0379370
 107.0680610  60.8992830  38.6315340 107.3373710  62.3714610  38.8596670
 103.6805540  63.0662090  44.4509690 102.8665380  63.4959250  44.7135480
 104.0879740  63.6780500  43.8378740 105.7430980  61.1209780  31.3509960
 106.0179820  62.0288660  31.2229180 105.5541720  61.0572310  32.2871950
 102.1406590  54.1454630  32.6463590 102.5591470  53.9585610  31.8060250
 101.8342650  53.2933680  32.9566520 105.6396320  59.0578770  36.3439390
 105.2639920  58.2906700  35.9120680 104.9099440  59.4401470  36.8314320
  90.2292080  59.7365910  42.9648440  90.5965120  59.6493310  43.8444460
  89.6602900  58.9732460  42.8655300 103.4684010  53.4306720  48.7558610
 104.3454190  53.4390120  49.1392610 103.4804850  52.6937560  48.1450960
 104.4047250  56.5409610  35.5839040 104.9006370  56.3080480  36.3687920
 104.2063320  55.7021450  35.1676680  91.6444160  64.2498600  48.1268590
  91.6013790  63.8791510  49.0083050  91.7755170  65.1876170  48.2670410
  95.3450190  65.8058190  43.7278310  95.1041550  66.0732750  42.8408830
  96.2852830  65.9763920  43.7829170 106.6054350  67.8252570  44.5288950
 106.1112630  68.2221440  43.8116080 105.9967640  67.2001780  44.9226230
  91.4832190  67.1960850  45.2466370  90.8892510  67.0645550  45.9856410
  91.4756030  66.3598990  44.7808470 104.2893800  68.4675990  41.8075690
 103.8296770  69.2191800  41.4333710 103.6606260  67.7482460  41.7490490
  91.1144420  64.5619230  44.1974410  90.3878480  63.9424520  44.1300360
  91.1753570  64.9559840  43.3272490  97.5257380  68.5888820  49.1761000
  98.4524690  68.3533090  49.2196960  97.5107810  69.4160820  48.6947030
 105.7602440  68.1314390  36.1735250 105.9354630  67.4452130  35.5296170
 105.0624010  68.6561440  35.7811920  94.7120990  51.2533570  48.9402880
  94.4305260  51.7567170  48.1763700  95.0940690  50.4555320  48.5745010
  93.6030090  68.5209230  33.7270560  94.3348910  68.2368510  33.1794450
  93.8623760  68.2822510  34.6169940  92.7644880  64.6373960  33.7316890
  92.1353760  65.1059060  34.2802720  92.8792710  63.7923180  34.1663080
 101.3136450  50.6687150  49.5183350 101.2001900  50.9881760  50.4134870
 102.1306190  51.0699660  49.2220630 104.0934940  67.8158680  49.0002040
 104.8860260  67.3207910  48.7928000 104.3868090  68.4948820  49.6077650
 100.2194600  58.6879620  19.8818090 100.1388650  57.7734230  19.6109800
  99.8059020  59.1846690  19.1757800  98.3512640  60.4658640  21.7627360
  97.5754740  59.9859080  22.0525930  99.0025570  59.7864290  21.5883520
  92.3678470  60.7778450  22.6403120  91.5363350  60.5227160  23.0399630
  92.9759450  60.8489220  23.3761040 102.3720070  64.8718830  20.5426490
 101.9101600  64.1006070  20.8713660 103.1845620  64.8984900  21.0478940
  92.3479730  64.8118540  22.8361140  92.6507770  63.9216280  22.6571360
  93.0923320  65.3688760  22.6083390  90.7770420  55.7380340  16.4245510
  89.8887120  56.0796310  16.3225390  91.0611610  55.5380660  15.5326340
  98.5983380  67.1576840  20.1630480  97.9794820  67.6134340  19.5924920
  99.4535160  67.3128300  19.7620180  97.7921630  63.1415830  21.7697520
  97.7229910  62.2005770  21.6086650  98.5541490  63.2317240  22.3420090
  98.8226800  55.9486210  21.9966450  99.1991620  55.0758090  21.8840120
  98.7246310  56.2844910  21.1056890  92.9531810  54.3211840  17.4583890
  93.0598560  55.2215570  17.7652650  92.0424170  54.2729810  17.1678540
  94.7939540  57.2898210  21.7909070  95.3017760  57.7879180  22.4314090
  95.3252780  56.5133410  21.6148430  99.4646730  62.0416080  17.5562390
  98.8464000  62.5065530  16.9925110  99.9769980  62.7343560  17.9731900
  94.3278490  61.5691950  24.2345990  93.9947870  62.1960870  24.8767060
  94.5045170  62.0953830  23.4547660  93.5397590  63.5372750  26.0495170
  94.1571590  64.2123830  25.7679620  92.6790710  63.9460730  25.9582670
  88.8329930  62.7272610  14.9302020  88.4557910  63.2159710  14.1986920
  89.0903000  63.3997890  15.5608550 104.4575180  65.0012160  23.9649810
 103.7738700  65.6711270  23.9566480 104.9969470  65.1992810  23.1994670
 101.9933920  66.8456290  22.6794990 102.0061080  66.4418580  21.8117250
 101.4409140  67.6203580  22.5756420 103.2879340  63.5672510  17.7685160
 103.1775670  62.6246840  17.8934580 103.2847590  63.9288150  18.6547920
 101.3919360  61.7486130  24.0077600 101.8088150  61.5346240  23.1731060
 102.1159180  62.0058920  24.5786220  98.8299620  59.1937830  17.1247650
  97.9028900  59.1275210  17.3536120  98.9824440  60.1317960  17.0102890
  98.8168700  55.4654830  14.1214810  97.8772370  55.6268790  14.2067270
  99.1351960  56.1840510  13.5750800 105.3381460  60.1473350  24.0993840
 104.5100090  60.2166440  23.6243970 105.9331940  60.7327660  23.6309670
 102.8596910  60.7558130  17.6282900 102.2409330  60.4177680  16.9809200
 102.8421360  60.1117890  18.3362090  94.4356260  59.7202570  19.9067380
  94.0313260  59.0079820  19.4113280  94.5219380  59.3755810  20.7955420
  94.9037960  63.4070130  22.0706590  94.6066250  62.8015600  21.3914370
  95.8537780  63.4447440  21.9595950 102.9923570  66.9802000  25.7329690
 102.5154130  67.7874190  25.5402300 102.3085360  66.3280330  25.8855900
  93.9956390  63.1451820  28.7214390  93.0984920  63.3691790  28.9687790
  94.0209260  63.2686760  27.7725790 101.0361610  59.9944940  14.6355650
 101.4754890  59.1567370  14.4893470 101.7490030  60.6274340  14.7219790
  99.1456990  64.9341010  18.6036890  99.5852900  65.6765340  18.1892280
  99.0843880  65.1767580  19.5275850  94.6207960  65.9586840  29.5056910
  94.5923390  66.3629790  28.6385340  94.4572930  65.0297200  29.3428510
 104.6178750  51.2487750  12.9496690 104.3051410  51.3414580  13.8495760
 105.3791220  51.8268780  12.8994120  91.1360890  58.6147550  17.4074030
  91.0158490  59.3409640  16.7955300  90.8261780  57.8450460  16.9301940
 106.5722780  66.7413940  30.8021080 107.0482500  67.2196830  31.4810160
 107.1929940  66.6731430  30.0766580  88.7746260  61.7862690  23.2142670
  88.8526680  61.9211460  22.2698390  89.3887940  61.0778580  23.4070790
  90.0193890  63.4862880  19.6248850  89.6121970  63.6277470  18.7702450
  90.9106900  63.2023040  19.4220060 105.9756030  63.9326790  27.9621090
 106.1019090  63.6938670  27.0438270 106.0177410  63.1011330  28.4343170
  99.8372770  67.6354790  26.5315900 100.3517440  67.5462800  27.3338330
  98.9941850  67.9814490  26.8243810 101.8127170  67.9210130  15.9599900
 101.6528310  67.6313070  16.8581730 101.6473880  67.1450260  15.4245130
  94.2915550  67.7008660  17.7371520  94.1158030  66.7844200  17.5239320
  93.4371290  68.0595950  17.9769320 101.5153300  65.4297690  14.5197900
 100.8218460  65.4274980  13.8600180 102.2576160  65.0057010  14.0892070
 101.0803230  67.0560400  18.5946390 101.5360180  66.2749780  18.9085010
 101.4195750  67.7667220  19.1387570  88.8305780  62.8276860  25.7537130
  88.9936820  62.3582220  24.9356500  89.2958230  62.3200420  26.4185970
  99.9848580  57.5461840  29.6228470 100.3101990  56.7125590  29.2830700
 100.7728910  58.0690360  29.7706800  96.7183370  51.5793320  15.6703530
  96.0937550  51.5753190  16.3956840  96.6313490  50.7124280  15.2739500
  93.3938770  57.0816190  18.5178950  93.1679690  56.8653360  19.4225570
  92.6131300  57.5144650  18.1724920 100.6236530  57.0879560  17.1169600
 100.0245420  57.8115360  16.9333220 101.1716140  57.0256340  16.3346050
  99.2301400  55.7243100  19.1472880  99.6230970  56.0415300  18.3341570
  99.5918250  54.8454980  19.2617400  88.4535800  56.2564020  12.5805800
  88.3710470  57.1994780  12.7220790  88.1018860  56.1138930  11.7018150
  99.8156540  58.3148850  23.2423660  99.0837660  58.8235660  23.5913760
  99.4180880  57.4978830  22.9412440  96.3154080  55.9915130  14.6382910
  96.4366900  55.9501610  15.5868730  95.9302590  56.8539280  14.4829640
  95.3275580  58.3016270  14.0366210  94.7592480  57.8534520  13.4102120
  96.0364580  58.6609050  13.5031360  90.4044760  62.2028290  27.9132940
  90.0199550  61.5621960  28.5115900  90.7156950  62.9064410  28.4827670
  96.5541900  59.0504830  23.3941560  96.9212030  58.5763400  24.1402900
  96.3646960  59.9246400  23.7349900  92.8723060  62.2974460  16.3092620
  92.0985320  61.7572080  16.1491340  93.6017690  61.7781070  15.9710380
 103.6311040  61.2939820  22.1019010 104.3510160  61.7895110  21.7115120
 103.4292860  60.6157710  21.4572880  99.0129840  61.3648880  27.9888010
  98.9467150  60.4444550  27.7345600  98.3834980  61.4624320  28.7032650
 101.8069370  57.0597430  14.5410560 102.6948990  57.3714660  14.3661900
 101.7774460  56.1869680  14.1491140  92.9160460  61.9654840  19.9471430
  93.4339130  61.1623100  19.8928320  92.4644480  61.9033980  20.7888260
  97.8029960  63.2321120  15.2198730  98.1445660  63.9763350  14.7242050
  96.9742670  63.5452240  15.5823560  98.9446570  64.1869450  27.7391810
  98.9591110  63.2550410  27.5210720  98.2371670  64.2729210  28.3781580
 104.0783640  58.3709270  14.0090420 103.9947360  58.8023490  13.1586860
 104.7977830  58.8307620  14.4417240 105.1557780  60.8276790  27.0860390
 104.4305970  61.4205570  26.8889780 105.6833240  60.8200330  26.2873760
 105.1070890  65.2251530  16.7372550 104.4647050  64.5707150  17.0116270
 104.7201550  65.6306620  15.9613220 100.6857370  62.5536960  20.5844240
 101.0381190  61.9565090  19.9245610  99.8019700  62.2281190  20.7552490
  96.7720650  63.3134650  17.9914650  97.4591780  63.8603860  18.3722240
  95.9853070  63.8575380  18.0264260  88.9113050  58.9307470  13.4831730
  89.7807900  59.2132270  13.7667650  88.4203370  59.7443340  13.3680540
  96.0747860  60.3180680  17.6040010  96.5310640  61.1285930  17.8300200
  95.7236070  60.0003820  18.4358500  98.3780470  65.8287020  24.8332310
  99.0222690  66.0346400  25.5105730  98.7409910  65.0675420  24.3803160
  99.6512550  63.8319370  23.5509760 100.2934780  63.1312530  23.6641930
 100.1761900  64.6117810  23.3706650 103.4968270  64.1167990  13.2748900
 103.2705850  63.3998430  13.8673540 103.1064470  63.8680430  12.4370650
 101.4250170  64.6314270  26.7545820 101.7606410  65.2180960  27.4323740
 100.5050510  64.5006980  26.9843610  89.2784300  68.1434850  14.0493360
  89.6381940  68.7424190  13.3950630  89.1376640  68.6894740  14.8228390
 103.0784520  62.0339930  14.9363060 102.7906220  62.4952620  15.7240940
 103.8736690  61.5737700  15.2047280  89.2626160  66.4089710  28.5235760
  89.3717280  65.4684450  28.3831150  88.6106720  66.6744460  27.8749490
  97.2538750  64.6805600  29.9233880  96.9335620  63.9614840  30.4679570
  96.5797110  65.3560670  29.9969940  95.2952920  65.5266050  14.8667030
  95.2863020  66.2595740  14.2511540  94.3751280  65.2797630  14.9593990
  90.8959560  60.7480940  15.6113790  90.2887510  61.4879840  15.6209090
  91.3708910  60.8380300  14.7851990 103.8354380  53.8688700  16.0958240
 103.2067540  53.9734370  15.3816470 103.3406300  54.0885480  16.8852120
  98.2812520  65.5894290  13.5292220  98.3824500  65.3858280  12.5994200
  97.3814260  65.3352570  13.7340000  95.8038410  56.1474650  17.5116120
  95.0954560  56.6160990  17.9529730  96.0882890  55.4896660  18.1461310
  97.4294340  57.5671350  25.5108650  97.9279590  58.0417170  26.1760500
  97.5717290  56.6434870  25.7178680  96.9230630  68.1080610  18.2239890
  97.1772130  68.0702000  17.3019260  95.9743110  67.9813940  18.2168140
  94.0073430  54.4559730  14.8866830  94.8563960  54.8929880  14.8207020
  93.6404700  54.7679990  15.7138890 102.9283210  59.0272490  19.7998400
 101.9873350  59.0422720  19.9746090 103.2427280  58.2408450  20.2458700
  92.9064850  60.7092090  13.3602360  93.6728120  60.5973450  13.9227790
  92.9839540  60.0130060  12.7079130  91.6011610  58.1417160  14.0435250
  91.6815200  57.1944670  14.1552650  92.4931360  58.4724040  14.1495910
 104.9308790  66.1981340  21.4752660 105.0556210  67.0212510  21.9476470
 105.7974350  65.9872070  21.1276810  92.4026320  68.2912550  21.1469790
  93.1388800  67.7428010  21.4178360  92.7867240  69.1568560  21.0075780
  89.2871800  64.3586120  17.0211300  88.3611580  64.6007260  17.0116710
  89.7528230  65.1860380  16.8996050  91.4084600  67.4758620  30.3355370
  92.2097330  67.7970670  30.7490770  90.8936420  67.1154200  31.0575280
  95.5128630  67.4642860  12.9695360  96.3057240  67.7531690  12.5177150
  94.9932980  67.0335030  12.2907840 100.2449230  63.5838490  30.2830780
  99.6387390  63.6070090  29.5426530  99.9403340  62.8521530  30.8198030
 101.6749600  67.3118780  28.8940190 102.6271350  67.2276800  28.8440430
 101.5277820  67.9760490  29.5673980 104.5658800  66.6912990  14.3932100
 104.2800310  66.2778130  13.5786280 104.3678350  67.6200700  14.2732620
  96.0306030  62.6846270  12.8337710  95.9256670  62.0698620  13.5599090
  95.8630250  62.1612160  12.0500720  96.1820350  61.3703070  28.8126940
  95.4166020  61.9388070  28.7281610  96.3636310  61.0779280  27.9195170
  99.2708760  61.7466300  13.4379700  98.7218860  62.1935600  14.0822440
  99.8928020  61.2415550  13.9617370 103.3243700  63.1008400  29.3701960
 104.0653170  63.4384160  28.8669420 102.5616380  63.2700460  28.8171730
  94.9383880  60.7057220  15.3345000  95.3600300  60.5397090  16.1776390
  95.0634720  59.8957450  14.8400140  97.4511520  59.7294830  12.5822100
  97.9717180  59.0143850  12.2163250  98.0979920  60.3680700  12.8822610
 101.9989360  61.1523230  27.9057170 102.4130380  61.3068310  28.7547590
 101.0640360  61.2778450  28.0682950 102.4711530  58.4919390  29.9096320
 103.0532300  57.7371710  29.8216800 102.6473300  59.0226830  29.1327800
  96.7604590  61.1043710  25.8753100  97.1792700  61.9476440  25.7029340
  95.8413220  61.2415750  25.6459880  99.0968490  58.8359890  27.2590940
  99.2164700  58.2401030  27.9985780  99.9562490  58.8729580  26.8392240
 101.4356390  59.3897080  25.8353450 100.9091610  59.9139700  25.2318590
 101.7787730  60.0224470  26.4663180  93.8342780  56.7790450  12.2803160
  93.6331840  55.9157810  12.6416500  93.6634830  56.6923810  11.3424760
  94.6112010  67.4096720  26.9910830  94.0733100  68.1342780  26.6719530
  94.8645970  66.9327060  26.2008170 101.3131090  51.5898680  14.8090040
 101.5933380  50.7466580  15.1649460 100.5396820  51.8221790  15.3228790
  92.6325580  53.8791070  12.2681040  92.9351480  53.8858500  11.3600190
  93.3720170  53.5288930  12.7648700  97.4674220  68.6447930  27.2497480
  97.3932920  69.5483070  27.5569850  96.5653060  68.3259830  27.2219550
  95.8510510  52.8225690  13.2537240  95.5032510  52.1449680  12.6739690
  96.0523280  52.3615200  14.0680630  98.0159550  67.8106440  14.8723840
  98.9110340  68.1491410  14.8942600  98.0477180  67.0885850  14.2448120
  91.6555710  63.1833490  13.1010840  92.0930580  63.7263160  13.7568420
  92.1403440  62.3580440  13.1107180  88.8701510  65.9722520  20.5531100
  89.2004520  65.1043580  20.3209740  89.2992510  66.1781040  21.3836060
  93.4663430  64.3031530  18.2133070  93.1658970  64.1796500  19.1136980
  93.3600920  63.4440120  17.8048800  89.3591720  66.8393110  23.2912730
  88.9222710  67.0193910  24.1236880  89.9269400  67.5967730  23.1494450
 104.9953900  66.3410110  27.5790040 104.3955890  66.4002670  26.8353960
 105.1247800  65.4015090  27.7086890 106.2355350  64.0827930  12.9159750
 105.4048310  64.1504580  13.3866980 106.4127180  64.9732050  12.6126610
 105.6911810  60.8275410  15.4193950 106.4530720  61.3972060  15.5253640
 105.7066180  60.2602610  16.1902260 106.6971780  61.6825510  20.2635880
 107.0680610  60.8992830  19.8571850 107.3373710  62.3714610  20.0853180
 103.6805540  63.0662090  25.6766200 102.8665380  63.4959250  25.9391990
 104.0879740  63.6780500  25.0635250 105.7430980  61.1209780  12.5766470
 106.0179820  62.0288660  12.4485690 105.5541720  61.0572310  13.5128460
 102.1406590  54.1454630  13.8720100 102.5591470  53.9585610  13.0316760
 101.8342650  53.2933680  14.1823030 105.6396320  59.0578770  17.5695900
 105.2639920  58.2906700  17.1377190 104.9099440  59.4401470  18.0570830
  88.4054230  56.5612270  15.5926940  87.5018310  56.8242470  15.4178600
  88.8894850  56.8323440  14.8126900 104.9147280  57.2836260  20.8703140
 105.4384760  56.7898910  20.2393310 105.5006700  57.4186620  21.6150710
  90.9481440  55.6177810  13.5021320  91.6573140  55.1961030  13.0168600
  90.2321380  55.6853040  12.8704670  90.5955600  51.6717140  12.5423970
  91.3183730  52.2126080  12.8605190  90.8680120  51.3980560  11.6665510
 104.4047250  56.5409610  16.8095550 104.9006370  56.3080480  17.5944430
 104.2063320  55.7021450  16.3933190 105.8334410  55.1770560  19.3433230
 105.7233690  55.0226600  20.2815500 106.5942000  54.6491500  19.1008640
 106.7224680  53.0078480  12.5839370 107.6473990  52.8759660  12.3757660
 106.7000470  53.0871300  13.5375820 106.7963170  53.7789140  15.2096080
 106.0014670  53.7134260  15.7388990 107.0006450  54.7139780  15.1981430
 103.7381590  67.8180690  19.2034470 104.3340660  67.4965260  18.5268890
 103.9959740  67.3452510  19.9947740  91.6444160  64.2498600  29.3525100
  91.6013790  63.8791510  30.2339560  91.7755170  65.1876170  29.4926920
  95.3450190  65.8058190  24.9534820  95.1041550  66.0732750  24.0665340
  96.2852830  65.9763920  25.0085680 106.6054350  67.8252570  25.7545460
 106.1112630  68.2221440  25.0372590 105.9967640  67.2001780  26.1482740
  91.4832190  67.1960850  26.4722880  90.8892510  67.0645550  27.2112920
  91.4756030  66.3598990  26.0064980 104.2893800  68.4675990  23.0332200
 103.8296770  69.2191800  22.6590220 103.6606260  67.7482460  22.9747000
  91.1144420  64.5619230  25.4230920  90.3878480  63.9424520  25.3556870
  91.1753570  64.9559840  24.5529000  94.7189520  66.7764230  22.2080330
  95.2354540  66.1651590  21.6828590  95.3686900  67.2793010  22.6991340
  97.4585020  67.6672720  23.0349310  97.7462830  67.4127020  22.1582320
  97.9708240  67.1150080  23.6254880  89.3974420  67.8793620  18.6327680
  89.2296460  67.2464300  19.3309570  88.5308930  68.0853020  18.2821870
  90.0202440  51.7110400  16.1359540  90.7781800  51.8239280  15.5623570
  89.5579610  52.5479600  16.0902970  91.0037120  66.5726850  16.0777820
  90.4784740  66.9534880  15.3739780  90.9281700  67.1977620  16.7987530
  92.3927590  52.2374450  14.6761510  92.9220350  51.4504250  14.5469460
  93.0255910  52.9165640  14.9097040  94.5865430  51.9749590  17.7306900
  93.9568170  51.2736900  17.8977030  94.0470570  52.7353720  17.5140060
  97.5257380  68.5888820  30.4017510  98.4524690  68.3533090  30.4453470
  97.5107810  69.4160820  29.9203540 105.7602440  68.1314390  17.3991760
 105.9354630  67.4452130  16.7552680 105.0624010  68.6561440  17.0068430
  93.6030090  68.5209230  14.9527070  94.3348910  68.2368510  14.4050960
  93.8623760  68.2822510  15.8426450  92.7644880  64.6373960  14.9573400
  92.1353760  65.1059060  15.5059230  92.8792710  63.7923180  15.3919590
 104.0934940  67.8158680  30.2258550 104.8860260  67.3207910  30.0184510
 104.3868090  68.4948820  30.8334160  98.3512640  60.4658640   2.9883870
  97.5754740  59.9859080   3.2782440  99.0025570  59.7864290   2.8140030
  92.3678470  60.7778450   3.8659630  91.5363350  60.5227160   4.2656140
  92.9759450  60.8489220   4.6017550 102.3720070  64.8718830   1.7683000
 101.9101600  64.1006070   2.0970170 103.1845620  64.8984900   2.2735450
  92.3479730  64.8118540   4.0617650  92.6507770  63.9216280   3.8827870
  93.0923320  65.3688760   3.8339900  88.7403430  58.3385990   3.5341720
  89.3119540  57.5708190   3.5345360  88.7404970  58.6374750   2.6248330
  97.7921630  63.1415830   2.9954030  97.7229910  62.2005770   2.8343160
  98.5541490  63.2317240   3.5676600  89.9828300  53.7470350   5.3210650
  89.8031140  52.8496100   5.6013410  89.5808380  54.2942220   5.9957600
  98.8226800  55.9486210   3.2222960  99.1991620  55.0758090   3.1096630
  98.7246310  56.2844910   2.3313400  90.6014970  56.2430850   3.9292990
  91.2825080  56.5069220   4.5480390  90.2863020  55.4031720   4.2631000
  94.7939540  57.2898210   3.0165580  95.3017760  57.7879180   3.6570600
  95.3252780  56.5133410   2.8404940 106.8950470  55.4603400   6.7194930
 106.1902640  55.8485110   6.2010040 107.1608390  56.1553690   7.3215860
  93.0775640  51.9296770   7.2829000  93.0794080  52.4469160   6.4774900
  92.2479950  51.4526950   7.2598930  94.3278490  61.5691950   5.4602500
  93.9947870  62.1960870   6.1023570  94.5045170  62.0953830   4.6804170
 102.8412400  55.3837030   2.9278840 102.1367970  55.6721920   3.5081950
 103.2024560  56.1937140   2.5678400  92.7590970  53.6406730   5.2899450
  93.1007780  54.4848780   4.9953320  91.8206780  53.7890470   5.4064790
  93.5397590  63.5372750   7.2751680  94.1571590  64.2123830   6.9936130
  92.6790710  63.9460730   7.1839180 104.4575180  65.0012160   5.1906320
 103.7738700  65.6711270   5.1822990 104.9969470  65.1992810   4.4251180
 105.9099320  54.8291820   3.3188050 104.9624230  54.8630800   3.4503480
 106.2349310  55.6430770   3.7037410 101.9933920  66.8456290   3.9051500
 102.0061080  66.4418580   3.0373760 101.4409140  67.6203580   3.8012930
 101.3919360  61.7486130   5.2334110 101.8088150  61.5346240   4.3987570
 102.1159180  62.0058920   5.8042730 105.3381460  60.1473350   5.3250350
 104.5100090  60.2166440   4.8500480 105.9331940  60.7327660   4.8566180
 102.3023470  56.9342670   6.2705220 101.8894650  57.7596380   6.5245210
 101.5699420  56.3487710   6.0781580  94.9037960  63.4070130   3.2963100
  94.6066250  62.8015600   2.6170880  95.8537780  63.4447440   3.1852460
  93.1484880  56.4945780   4.9122930  93.6999470  56.6041120   4.1376180
  93.6628390  56.8683380   5.6278160 102.9923570  66.9802000   6.9586200
 102.5154130  67.7874190   6.7658810 102.3085360  66.3280330   7.1112410
  93.9956390  63.1451820   9.9470900  93.0984920  63.3691790  10.1944300
  94.0209260  63.2686760   8.9982300  92.8227610  60.0165140   8.5228270
  92.6835380  60.8887940   8.8915670  91.9408970  59.6737950   8.3776210
  94.6207960  65.9586840  10.7313420  94.5923390  66.3629790   9.8641850
  94.4572930  65.0297200  10.5685020 106.5722780  66.7413940  12.0277590
 107.0482500  67.2196830  12.7066670 107.1929940  66.6731430  11.3023090
  88.7746260  61.7862690   4.4399180  88.8526680  61.9211460   3.4954900
  89.3887940  61.0778580   4.6327300 105.9756030  63.9326790   9.1877600
 106.1019090  63.6938670   8.2694780 106.0177410  63.1011330   9.6599680
  99.8372770  67.6354790   7.7572410 100.3517440  67.5462800   8.5594840
  98.9941850  67.9814490   8.0500320 105.8280040  55.9859250  10.1527340
 105.2124310  56.4938920   9.6242800 105.5076460  55.0857580  10.0953280
  88.8305780  62.8276860   6.9793640  88.9936820  62.3582220   6.1613010
  89.2958230  62.3200420   7.6442480  93.6024550  51.9582620   2.0154210
  93.1592700  52.7392160   1.6838730  94.1609540  52.2812510   2.7225150
  97.8894360  54.8251140   7.6189530  97.4273730  55.0334160   8.4309470
  97.4872470  54.0110490   7.3160200 102.8898870  56.0460090   8.7486190
 102.0392460  55.7465840   9.0695260 102.7300660  56.2902100   7.8370010
  99.9848580  57.5461840  10.8484980 100.3101990  56.7125590  10.5087210
 100.7728910  58.0690360  10.9963310  95.6400450  52.5029950   3.8743810
  95.9372780  53.4092780   3.7935830  96.1886010  52.0148730   3.2603380
  95.8337980  57.9801770  10.4095730  95.7381580  57.0396500  10.2596130
  96.6769960  58.2016840  10.0143800  90.9648520  54.3915440   8.5629510
  90.5711910  55.2390650   8.7702290  90.2766920  53.7541810   8.7538150
  97.5393570  54.4750410  11.6326250  96.8491890  54.2822610  12.2672340
  98.2825870  54.7585050  12.1650550  88.2665570  52.3143900   2.5959590
  87.9778620  52.8846760   3.3084570  89.0111330  51.8348350   2.9590820
  99.8156540  58.3148850   4.4680170  99.0837660  58.8235660   4.8170270
  99.4180880  57.4978830   4.1668950  96.2533930  54.9903050   2.8732660
  96.2569990  54.5493000   2.0237200  97.1485050  55.3120380   2.9804480
  92.1036310  54.8729540   1.8326870  91.7636360  55.3504770   2.5893920
  91.3413630  54.4194660   1.4727970 100.2782450  53.7682530   3.8803110
 100.2955190  54.2191180   4.7244960 100.0298030  52.8688170   4.0936550
 103.7053200  51.1814710   9.7189490 104.0298970  50.4504370  10.2447470
 103.7409710  50.8628350   8.8170480  90.4044760  62.2028290   9.1389450
  90.0199550  61.5621960   9.7372410  90.7156950  62.9064410   9.7084180
  96.5541900  59.0504830   4.6198070  96.9212030  58.5763400   5.3659410
  96.3646960  59.9246400   4.9606410  94.3441270  58.0913470   6.9382280
  94.0398340  58.9705450   7.1632640  95.2987730  58.1513260   6.9739720
 103.6311040  61.2939820   3.3275520 104.3510160  61.7895110   2.9371630
 103.4292860  60.6157710   2.6829390  99.0129840  61.3648880   9.2144520
  98.9467150  60.4444550   8.9602110  98.3834980  61.4624320   9.9289160
  90.4005000  58.9316210   8.0853640  90.0419940  59.5970060   8.6726980
  90.1059560  58.0999760   8.4566260  93.6018120  59.3900450  10.9693190
  93.3018260  59.5357630  10.0721010  94.3729360  58.8305740  10.8766580
  98.9446570  64.1869450   8.9648320  98.9591110  63.2550410   8.7467230
  98.2371670  64.2729210   9.6038090 105.1557780  60.8276790   8.3116900
 104.4305970  61.4205570   8.1146290 105.6833240  60.8200330   7.5130270
  98.3780470  65.8287020   6.0588820  99.0222690  66.0346400   6.7362240
  98.7409910  65.0675420   5.6059670  99.6512550  63.8319370   4.7766270
 100.2934780  63.1312530   4.8898440 100.1761900  64.6117810   4.5963160
 101.4250170  64.6314270   7.9802330 101.7606410  65.2180960   8.6580250
 100.5050510  64.5006980   8.2100120  88.9753570  52.4209450   8.7625740
  88.2612090  52.6206370   9.3678350  89.3948610  51.6449020   9.1340540
  89.2626160  66.4089710   9.7492270  89.3717280  65.4684450   9.6087660
  88.6106720  66.6744460   9.1006000  97.2538750  64.6805600  11.1490390
  96.9335620  63.9614840  11.6936080  96.5797110  65.3560670  11.2226450
 100.4692350  54.9131760   6.5127190 100.8373170  54.0926970   6.8406760
  99.6090550  54.9733650   6.9282840  97.4294340  57.5671350   6.7365160
  97.9279590  58.0417170   7.4017010  97.5717290  56.6434870   6.9435190
 104.6361200  53.7839310   7.5793550 104.1334800  54.5244710   7.9187360
 105.4517860  54.1723310   7.2630340 104.9308790  66.1981340   2.7009170
 105.0556210  67.0212510   3.1732980 105.7974350  65.9872070   2.3533320
  92.4026320  68.2912550   2.3726300  93.1388800  67.7428010   2.6434870
  92.7867240  69.1568560   2.2332290  91.4084600  67.4758620  11.5611880
  92.2097330  67.7970670  11.9747280  90.8936420  67.1154200  12.2831790
 100.2449230  63.5838490  11.5087290  99.6387390  63.6070090  10.7683040
  99.9403340  62.8521530  12.0454540 101.6749600  67.3118780  10.1196700
 102.6271350  67.2276800  10.0696940 101.5277820  67.9760490  10.7930490
  89.1282410  59.9632080  10.5047930  89.6321430  59.3839360  11.0764160
  88.3889830  60.2472310  11.0424300  96.1820350  61.3703070  10.0383450
  95.4166020  61.9388070   9.9538120  96.3636310  61.0779280   9.1451680
 103.3243700  63.1008400  10.5958470 104.0653170  63.4384160  10.0925930
 102.5616380  63.2700460  10.0428240  91.1605490  58.1061670  11.3998000
  91.2010830  57.8075540  12.3083230  92.0150990  58.5069280  11.2405520
  93.1011300  56.6853770   9.3672490  92.5707760  56.1944720   8.7395830
  93.7699370  57.1137970   8.8330420 101.9989360  61.1523230   9.1313680
 102.4130380  61.3068310   9.9804100 101.0640360  61.2778450   9.2939460
 102.4711530  58.4919390  11.1352830 103.0532300  57.7371710  11.0473310
 102.6473300  59.0226830  10.3584310  93.5883600  53.6516140   9.4469780
  93.4940470  53.0336890   8.7220650  93.0080990  54.3782430   9.2199690
  96.3545040  52.2089380   6.4797170  95.9062340  52.2313640   5.6342720
  95.7210240  51.8108400   7.0767470  96.7604590  61.1043710   7.1009610
  97.1792700  61.9476440   6.9285850  95.8413220  61.2415750   6.8716390
  99.0968490  58.8359890   8.4847450  99.2164700  58.2401030   9.2242290
  99.9562490  58.8729580   8.0648750 101.4356390  59.3897080   7.0609960
 100.9091610  59.9139700   6.4575100 101.7787730  60.0224470   7.6919690
  94.6112010  67.4096720   8.2167340  94.0733100  68.1342780   7.8976040
  94.8645970  66.9327060   7.4264680  95.8637260  55.3781240   9.7423270
  96.4536950  55.0697090  10.4301090  95.0457500  54.9060990   9.8983170
 100.6830690  54.9947050   9.9756290  99.9946210  54.3328590   9.9106280
 101.4036710  54.5485320  10.4204750  97.4674220  68.6447930   8.4753990
  97.3932920  69.5483070   8.7826360  96.5653060  68.3259830   8.4476060
  88.8701510  65.9722520   1.7787610  89.2004520  65.1043580   1.5466250
  89.2992510  66.1781040   2.6092570  89.3591720  66.8393110   4.5169240
  88.9222710  67.0193910   5.3493390  89.9269400  67.5967730   4.3750960
 103.6805540  63.0662090   6.9022710 102.8665380  63.4959250   7.1648500
 104.0879740  63.6780500   6.2891760  90.2292080  59.7365910   5.4161460
  90.5965120  59.6493310   6.2957480  89.6602900  58.9732460   5.3168320
 105.0295940  58.2050290   8.4291930 104.7982030  57.9763040   7.5289880
 105.2900490  59.1249840   8.3836820  89.7808080  56.6475000   9.3219880
  88.8864130  56.6141760   9.6613590  90.3205630  56.8461790  10.0871130
 103.4684010  53.4306720  11.2071630 104.3454190  53.4390120  11.5905630
 103.4804850  52.6937560  10.5963980 104.9147280  57.2836260   2.0959650
 105.4384760  56.7898910   1.4649820 105.5006700  57.4186620   2.8407220
 105.0937000  57.3676130   5.6179200 104.1439710  57.3339670   5.7324190
 105.2750010  58.2776240   5.3828970  90.2847790  50.9223330   3.6703100
  90.9323980  50.3720710   3.2298260  90.7049630  51.1766480   4.4918910
 104.1800130  51.1164690   7.0272740 104.8172350  51.7298830   7.3931930
 104.3275020  51.1525350   6.0821970  90.0379790  51.0779000   6.4128420
  89.6894610  51.5342820   7.1786600  89.7067490  50.1836130   6.4950850
  91.6444160  64.2498600  10.5781610  91.6013790  63.8791510  11.4596070
  91.7755170  65.1876170  10.7183430  95.3450190  65.8058190   6.1791330
  95.1041550  66.0732750   5.2921850  96.2852830  65.9763920   6.2342190
  97.5504610  52.2690880   9.9347840  97.4893500  52.8612710  10.6843250
  98.4904990  52.1616840   9.7898100 100.1879170  51.9260940   9.5740130
 100.8019580  52.2440230   8.9121210 100.7328730  51.4409530  10.1935990
 106.6054350  67.8252570   6.9801970 106.1112630  68.2221440   6.2629100
 105.9967640  67.2001780   7.3739250  90.7100430  50.6055200   9.6879190
  91.2583420  50.4243250   8.9245300  90.7755740  49.8149310  10.2235500
  91.4832190  67.1960850   7.6979390  90.8892510  67.0645550   8.4369430
  91.4756030  66.3598990   7.2321490 100.9287210  50.4893080   5.9009420
 100.0547050  50.8228190   5.6982350 100.8197960  50.0166260   6.7261290
 101.8359190  52.6963950   7.2851140 101.5072550  51.8815710   6.9052870
 102.7841490  52.6533760   7.1616830 104.2893800  68.4675990   4.2588710
 103.8296770  69.2191800   3.8846730 103.6606260  67.7482460   4.2003510
  91.1144420  64.5619230   6.6487430  90.3878480  63.9424520   6.5813380
  91.1753570  64.9559840   5.7785510  94.7189520  66.7764230   3.4336840
  95.2354540  66.1651590   2.9085100  95.3686900  67.2793010   3.9247850
  97.4585020  67.6672720   4.2605820  97.7462830  67.4127020   3.3838830
  97.9708240  67.1150080   4.8511390  98.6762030  51.4062920   4.8402330
  97.8933820  51.8808420   5.1199090  98.3824960  50.5017750   4.7315510
 103.2283100  52.1086020   2.8851420 103.6691190  52.0531120   2.0373020
 102.9590690  53.0244030   2.9561600  97.5257380  68.5888820  11.6274020
  98.4524690  68.3533090  11.6709980  97.5107810  69.4160820  11.1460050
  94.7120990  51.2533570  11.3915900  94.4305260  51.7567170  10.6276720
  95.0940690  50.4555320  11.0258030 101.3136450  50.6687150  11.9696370
 101.2001900  50.9881760  12.8647890 102.1306190  51.0699660  11.6733650
 104.0934940  67.8158680  11.4515060 104.8860260  67.3207910  11.2441020
 104.3868090  68.4948820  12.0590670 100.2194600  39.9136130  57.4305070
 100.1388650  38.9990740  57.1596780  99.8059020  40.4103200  56.7244780
  98.3512640  41.6915150  59.3114340  97.5754740  41.2115590  59.6012910
  99.0025570  41.0120800  59.1370500 102.3720070  46.0975340  58.0913470
 101.9101600  45.3262580  58.4200640 103.1845620  46.1241410  58.5965920
  90.7770420  36.9636850  53.9732490  89.8887120  37.3052820  53.8712370
  91.0611610  36.7637170  53.0813320  88.7403430  39.5642500  59.8572190
  89.3119540  38.7964700  59.8575830  88.7404970  39.8631260  58.9478800
  98.5983380  48.3833350  57.7117460  97.9794820  48.8390850  57.1411900
  99.4535160  48.5384810  57.3107160  97.7921630  44.3672340  59.3184500
  97.7229910  43.4262280  59.1573630  98.5541490  44.4573750  59.8907070
  98.8226800  37.1742720  59.5453430  99.1991620  36.3014600  59.4327100
  98.7246310  37.5101420  58.6543870  92.9531810  35.5468350  55.0070870
  93.0598560  36.4472080  55.3139630  92.0424170  35.4986320  54.7165520
 102.6050920  34.6693160  56.4781770 103.4260540  34.1789730  56.5207250
 102.6385000  35.2590820  57.2313610  94.7939540  38.5154720  59.3396050
  95.3017760  39.0135690  59.9801070  95.3252780  37.7389920  59.1635410
  99.4646730  43.2672590  55.1049370  98.8464000  43.7322040  54.5412090
  99.9769980  43.9600070  55.5218880 102.8412400  36.6093540  59.2509310
 102.1367970  36.8978430  59.8312420 103.2024560  37.4193650  58.8908870
  88.8329930  43.9529120  52.4789000  88.4557910  44.4416220  51.7473900
  89.0903000  44.6254400  53.1095530 105.9099320  36.0548330  59.6418520
 104.9624230  36.0887310  59.7733950 106.2349310  36.8687280  60.0267880
  96.4418860  32.3545510  57.9374510  96.7493840  31.7992400  57.2210010
  95.5119560  32.4889970  57.7547500 101.9933920  48.0712800  60.2281970
 102.0061080  47.6675090  59.3604230 101.4409140  48.8460090  60.1243400
 103.2879340  44.7929020  55.3172140 103.1775670  43.8503350  55.4421560
 103.2847590  45.1544660  56.2034900  98.8299620  40.4194340  54.6734630
  97.9028900  40.3531720  54.9023100  98.9824440  41.3574470  54.5589870
  98.8168700  36.6911340  51.6701790  97.8772370  36.8525300  51.7554250
  99.1351960  37.4097020  51.1237780 102.8596910  41.9814640  55.1769880
 102.2409330  41.6434190  54.5296180 102.8421360  41.3374400  55.8849070
  94.4356260  40.9459080  57.4554360  94.0313260  40.2336330  56.9600260
  94.5219380  40.6012320  58.3442400  94.9037960  44.6326640  59.6193570
  94.6066250  44.0272110  58.9401350  95.8537780  44.6703950  59.5082930
 101.0361610  41.2201450  52.1842630 101.4754890  40.3823880  52.0380450
 101.7490030  41.8530850  52.2706770  99.1456990  46.1597520  56.1523870
  99.5852900  46.9021850  55.7379260  99.0843880  46.4024090  57.0762830
 104.6178750  32.4744260  50.4983670 104.3051410  32.5671090  51.3982740
 105.3791220  33.0525290  50.4481100  91.1360890  39.8404060  54.9561010
  91.0158490  40.5666150  54.3442280  90.8261780  39.0706970  54.4788920
  90.0193890  44.7119390  57.1735830  89.6121970  44.8533980  56.3189430
  90.9106900  44.4279550  56.9707040 101.8127170  49.1466640  53.5086880
 101.6528310  48.8569580  54.4068710 101.6473880  48.3706770  52.9732110
  94.2915550  48.9265170  55.2858500  94.1158030  48.0100710  55.0726300
  93.4371290  49.2852460  55.5256300 101.5153300  46.6554200  52.0684880
 100.8218460  46.6531490  51.4087160 102.2576160  46.2313520  51.6379050
 101.0803230  48.2816910  56.1433370 101.5360180  47.5006290  56.4571990
 101.4195750  48.9923730  56.6874550  93.6024550  33.1839130  58.3384680
  93.1592700  33.9648670  58.0069200  94.1609540  33.5069020  59.0455620
  96.7183370  32.8049830  53.2190510  96.0937550  32.8009700  53.9443820
  96.6313490  31.9380790  52.8226480  95.6400450  33.7286460  60.1974280
  95.9372780  34.6349290  60.1166300  96.1886010  33.2405240  59.5833850
  93.3938770  38.3072700  56.0665930  93.1679690  38.0909870  56.9712550
  92.6131300  38.7401160  55.7211900 100.6236530  38.3136070  54.6656580
 100.0245420  39.0371870  54.4820200 101.1716140  38.2512850  53.8833030
  99.2301400  36.9499610  56.6959860  99.6230970  37.2671810  55.8828550
  99.5918250  36.0711490  56.8104380  88.2665570  33.5400410  58.9190060
  87.9778620  34.1103270  59.6315040  89.0111330  33.0604860  59.2821290
  88.4535800  37.4820530  50.1292780  88.3710470  38.4251290  50.2707770
  88.1018860  37.3395440  49.2505130  96.2533930  36.2159560  59.1963130
  96.2569990  35.7749510  58.3467670  97.1485050  36.5376890  59.3034950
  92.1036310  36.0986050  58.1557340  91.7636360  36.5761280  58.9124390
  91.3413630  35.6451170  57.7958440  96.3154080  37.2171640  52.1869890
  96.4366900  37.1758120  53.1355710  95.9302590  38.0795790  52.0316620
  95.3275580  39.5272780  51.5853190  94.7592480  39.0791030  50.9589100
  96.0364580  39.8865560  51.0518340  89.4182390  35.0205030  57.0722010
  89.1329310  34.6560700  57.9100630  89.3561250  34.2885490  56.4585150
  92.8723060  43.5230970  53.8579600  92.0985320  42.9828590  53.6978320
  93.6017690  43.0037580  53.5197360 103.6311040  42.5196330  59.6505990
 104.3510160  43.0151620  59.2602100 103.4292860  41.8414220  59.0059860
  99.0920980  33.9134290  53.7935380  98.2785590  33.4147460  53.7180690
  98.8982930  34.7532540  53.3771730 101.8069370  38.2853940  52.0897540
 102.6948990  38.5971170  51.9148880 101.7774460  37.4126190  51.6978120
  92.9160460  43.1911350  57.4958410  93.4339130  42.3879610  57.4415300
  92.4644480  43.1290490  58.3375240  97.8029960  44.4577630  52.7685710
  98.1445660  45.2019860  52.2729030  96.9742670  44.7708750  53.1310540
 104.0783640  39.5965780  51.5577400 103.9947360  40.0280000  50.7073840
 104.7977830  40.0564130  51.9904220 105.1070890  46.4508040  54.2859530
 104.4647050  45.7963660  54.5603250 104.7201550  46.8563130  53.5100200
 100.6857370  43.7793470  58.1331220 101.0381190  43.1821600  57.4732590
  99.8019700  43.4537700  58.3039470  96.7720650  44.5391160  55.5401630
  97.4591780  45.0860370  55.9209220  95.9853070  45.0831890  55.5751240
  88.9113050  40.1563980  51.0318710  89.7807900  40.4388780  51.3154630
  88.4203370  40.9699850  50.9167520  96.0747860  41.5437190  55.1526990
  96.5310640  42.3542440  55.3787180  95.7236070  41.2260330  55.9845480
  91.9759640  31.8874840  55.6249510  91.8474270  31.8792740  56.5734430
  91.1521660  32.2257930  55.2740520 103.4968270  45.3424500  50.8235880
 103.2705850  44.6254940  51.4160520 103.1064470  45.0936940  49.9857630
  89.2784300  49.3691360  51.5980340  89.6381940  49.9680700  50.9437610
  89.1376640  49.9151250  52.3715370 103.0784520  43.2596440  52.4850040
 102.7906220  43.7209130  53.2727920 103.8736690  42.7994210  52.7534260
  95.2952920  46.7522560  52.4154010  95.2863020  47.4852250  51.7998520
  94.3751280  46.5054140  52.5080970  90.8959560  41.9737450  53.1600770
  90.2887510  42.7136350  53.1696070  91.3708910  42.0636810  52.3338970
 103.8354380  35.0945210  53.6445220 103.2067540  35.1990880  52.9303450
 103.3406300  35.3141990  54.4339100  98.2812520  46.8150800  51.0779200
  98.3824500  46.6114790  50.1481180  97.3814260  46.5609080  51.2826980
  95.8038410  37.3731160  55.0603100  95.0954560  37.8417500  55.5016710
  96.0882890  36.7153170  55.6948290  99.8353840  34.0981820  56.4998890
  99.7121620  34.1167950  55.5508400 100.7838400  34.1460760  56.6197290
  96.9230630  49.3337120  55.7726870  97.1772130  49.2958510  54.8506240
  95.9743110  49.2070450  55.7655120  94.0073430  35.6816240  52.4353810
  94.8563960  36.1186390  52.3694000  93.6404700  35.9936500  53.2625870
 102.9283210  40.2529000  57.3485380 101.9873350  40.2679230  57.5233070
 103.2427280  39.4664960  57.7945680  92.9064850  41.9348600  50.9089340
  93.6728120  41.8229960  51.4714770  92.9839540  41.2386570  50.2566110
  91.6011610  39.3673670  51.5922230  91.6815200  38.4201180  51.7039630
  92.4931360  39.6980550  51.6982890 104.9308790  47.4237850  59.0239640
 105.0556210  48.2469020  59.4963450 105.7974350  47.2128580  58.6763790
  92.4026320  49.5169060  58.6956770  93.1388800  48.9684520  58.9665340
  92.7867240  50.3825070  58.5562760  89.2871800  45.5842630  54.5698280
  88.3611580  45.8263770  54.5603690  89.7528230  46.4116890  54.4483030
  95.5128630  48.6899370  50.5182340  96.3057240  48.9788200  50.0664130
  94.9932980  48.2591540  49.8394820 104.5658800  47.9169500  51.9419080
 104.2800310  47.5034640  51.1273260 104.3678350  48.8457210  51.8219600
  99.2708760  42.9722810  50.9866680  98.7218860  43.4192110  51.6309420
  99.8928020  42.4672060  51.5104350  94.9383880  41.9313730  52.8831980
  95.3600300  41.7653600  53.7263370  95.0634720  41.1213960  52.3887120
  97.4511520  40.9551340  50.1309080  97.9717180  40.2400360  49.7650230
  98.0979920  41.5937210  50.4309590  93.8342780  38.0046960  49.8290140
  93.6331840  37.1414320  50.1903480  93.6634830  37.9180320  48.8911740
 101.3131090  32.8155190  52.3577020 101.5933380  31.9723090  52.7136440
 100.5396820  33.0478300  52.8715770  92.6325580  35.1047580  49.8168020
  92.9351480  35.1115010  48.9087170  93.3720170  34.7545440  50.3135680
  95.8510510  34.0482200  50.8024220  95.5032510  33.3706190  50.2226670
  96.0523280  33.5871710  51.6167610  98.0159550  49.0362950  52.4210820
  98.9110340  49.3747920  52.4429580  98.0477180  48.3142360  51.7935100
  91.6555710  44.4090000  50.6497820  92.0930580  44.9519670  51.3055400
  92.1403440  43.5836950  50.6594160  88.8701510  47.1979030  58.1018080
  89.2004520  46.3300090  57.8696720  89.2992510  47.4037550  58.9323040
  93.4663430  45.5288040  55.7620050  93.1658970  45.4053010  56.6623960
  93.3600920  44.6696630  55.3535780 106.2355350  45.3084440  50.4646730
 105.4048310  45.3761090  50.9353960 106.4127180  46.1988560  50.1613590
 105.6911810  42.0531920  52.9680930 106.4530720  42.6228570  53.0740620
 105.7066180  41.4859120  53.7389240  89.1916150  40.5769850  57.1988590
  88.5364990  40.3081490  56.5548290  90.0294100  40.4674330  56.7490570
 106.6971780  42.9082020  57.8122860 107.0680610  42.1249340  57.4058830
 107.3373710  43.5971120  57.6340160 105.7430980  42.3466290  50.1253450
 106.0179820  43.2545170  49.9972670 105.5541720  42.2828820  51.0615440
 102.1406590  35.3711140  51.4207080 102.5591470  35.1842120  50.5803740
 101.8342650  34.5190190  51.7310010 105.6396320  40.2835280  55.1182880
 105.2639920  39.5163210  54.6864170 104.9099440  40.6657980  55.6057810
  88.4054230  37.7868780  53.1413920  87.5018310  38.0498980  52.9665580
  88.8894850  38.0579950  52.3613880 104.9147280  38.5092770  58.4190120
 105.4384760  38.0155420  57.7880290 105.5006700  38.6443130  59.1637690
  90.9481440  36.8434320  51.0508300  91.6573140  36.4217540  50.5655580
  90.2321380  36.9109550  50.4191650  90.5955600  32.8973650  50.0910950
  91.3183730  33.4382590  50.4092170  90.8680120  32.6237070  49.2152490
 104.4047250  37.7666120  54.3582530 104.9006370  37.5336990  55.1431410
 104.2063320  36.9277960  53.9420170 105.8334410  36.4027070  56.8920210
 105.7233690  36.2483110  57.8302480 106.5942000  35.8748010  56.6495620
 106.7224680  34.2334990  50.1326350 107.6473990  34.1016170  49.9244640
 106.7000470  34.3127810  51.0862800 106.7963170  35.0045650  52.7583060
 106.0014670  34.9390770  53.2875970 107.0006450  35.9396290  52.7468410
 103.7381590  49.0437200  56.7521450 104.3340660  48.7221770  56.0755870
 103.9959740  48.5709020  57.5434720  94.7189520  48.0020740  59.7567310
  95.2354540  47.3908100  59.2315570  95.3686900  48.5049520  60.2478320
 103.2283100  33.3342530  59.2081890 103.6691190  33.2787630  58.3603490
 102.9590690  34.2500540  59.2792070 105.0921670  32.9657770  57.2190710
 105.0310070  32.0218990  57.0721730 105.8713700  33.0737860  57.7644170
  89.3974420  49.1050130  56.1814660  89.2296460  48.4720810  56.8796550
  88.5308930  49.3109530  55.8308850  90.0202440  32.9366910  53.6846520
  90.7781800  33.0495790  53.1110550  89.5579610  33.7736110  53.6389950
  96.5616250  35.0506180  56.6748830  95.7490760  34.6763070  56.3344710
  97.0657890  34.2951260  56.9770020 101.0641230  31.7148630  57.9131900
 101.6670600  32.2868840  58.3880420 100.3234220  32.2788070  57.6905800
 104.2075830  32.1170190  53.1872180 104.4026460  33.0153640  53.4539610
 103.4205700  31.8857270  53.6805130  91.0037120  47.7983360  53.6264800
  90.4784740  48.1791390  52.9226760  90.9281700  48.4234130  54.3474510
  92.3927590  33.4630960  52.2248490  92.9220350  32.6760760  52.0956440
  93.0255910  34.1422150  52.4584020  94.5865430  33.2006100  55.2793880
  93.9568170  32.4993410  55.4464010  94.0470570  33.9610230  55.0627040
 105.7602440  49.3570900  54.9478740 105.9354630  48.6708640  54.3039660
 105.0624010  49.8817950  54.5555410  93.6030090  49.7465740  52.5014050
  94.3348910  49.4625020  51.9537940  93.8623760  49.5079020  53.3913430
  92.7644880  45.8630470  52.5060380  92.1353760  46.3315570  53.0546210
  92.8792710  45.0179690  52.9406570  90.7770420  36.9636850  35.1989000
  89.8887120  37.3052820  35.0968880  91.0611610  36.7637170  34.3069830
 106.8950470  36.6859910  44.2681910 106.1902640  37.0741620  43.7497020
 107.1608390  37.3810200  44.8702840  93.5397590  44.7629260  44.8238660
  94.1571590  45.4380340  44.5423110  92.6790710  45.1717240  44.7326160
 101.3919360  42.9742640  42.7821090 101.8088150  42.7602750  41.9474550
 102.1159180  43.2315430  43.3529710 105.3381460  41.3729860  42.8737330
 104.5100090  41.4422950  42.3987460 105.9331940  41.9584170  42.4053160
  93.9956390  44.3708330  47.4957880  93.0984920  44.5948300  47.7431280
  94.0209260  44.4943270  46.5469280  92.8227610  41.2421650  46.0715250
  92.6835380  42.1144450  46.4402650  91.9408970  40.8994460  45.9263190
  94.6207960  47.1843350  48.2800400  94.5923390  47.5886300  47.4128830
  94.4572930  46.2553710  48.1172000 104.6178750  32.4744260  31.7240180
 104.3051410  32.5671090  32.6239250 105.3791220  33.0525290  31.6737610
 106.5722780  47.9670450  49.5764570 107.0482500  48.4453340  50.2553650
 107.1929940  47.8987940  48.8510070 105.9756030  45.1583300  46.7364580
 106.1019090  44.9195180  45.8181760 106.0177410  44.3267840  47.2086660
 105.8280040  37.2115760  47.7014320 105.2124310  37.7195430  47.1729780
 105.5076460  36.3114090  47.6440260  97.8894360  36.0507650  45.1676510
  97.4273730  36.2590670  45.9796450  97.4872470  35.2367000  44.8647180
 102.8898870  37.2716600  46.2973170 102.0392460  36.9722350  46.6182240
 102.7300660  37.5158610  45.3856990  99.9848580  38.7718350  48.3971960
 100.3101990  37.9382100  48.0574190 100.7728910  39.2946870  48.5450290
  96.7183370  32.8049830  34.4447020  96.0937550  32.8009700  35.1700330
  96.6313490  31.9380790  34.0482990  95.8337980  39.2058280  47.9582710
  95.7381580  38.2653010  47.8083110  96.6769960  39.4273350  47.5630780
  90.9648520  35.6171950  46.1116490  90.5711910  36.4647160  46.3189270
  90.2766920  34.9798320  46.3025130  97.5393570  35.7006920  49.1813230
  96.8491890  35.5079120  49.8159320  98.2825870  35.9841560  49.7137530
 103.7053200  32.4071220  47.2676470 104.0298970  31.6760880  47.7934450
 103.7409710  32.0884860  46.3657460  90.4044760  43.4284800  46.6876430
  90.0199550  42.7878470  47.2859390  90.7156950  44.1320920  47.2571160
  94.3441270  39.3169980  44.4869260  94.0398340  40.1961960  44.7119620
  95.2987730  39.3769770  44.5226700  99.0129840  42.5905390  46.7631500
  98.9467150  41.6701060  46.5089090  98.3834980  42.6880830  47.4776140
  90.4005000  40.1572720  45.6340620  90.0419940  40.8226570  46.2213960
  90.1059560  39.3256270  46.0053240  93.6018120  40.6156960  48.5180170
  93.3018260  40.7614140  47.6207990  94.3729360  40.0562250  48.4253560
  98.9446570  45.4125960  46.5135300  98.9591110  44.4806920  46.2954210
  98.2371670  45.4985720  47.1525070 105.1557780  42.0533300  45.8603880
 104.4305970  42.6462080  45.6633270 105.6833240  42.0456840  45.0617250
 101.4250170  45.8570780  45.5289310 101.7606410  46.4437470  46.2067230
 100.5050510  45.7263490  45.7587100  89.2784300  49.3691360  32.8236850
  89.6381940  49.9680700  32.1694120  89.1376640  49.9151250  33.5971880
  88.9753570  33.6465960  46.3112720  88.2612090  33.8462880  46.9165330
  89.3948610  32.8705530  46.6827520  97.2538750  45.9062110  48.6977370
  96.9335620  45.1871350  49.2423060  96.5797110  46.5817180  48.7713430
 100.4692350  36.1388270  44.0614170 100.8373170  35.3183480  44.3893740
  99.6090550  36.1990160  44.4769820  97.4294340  38.7927860  44.2852140
  97.9279590  39.2673680  44.9503990  97.5717290  37.8691380  44.4922170
  94.0073430  35.6816240  33.6610320  94.8563960  36.1186390  33.5950510
  93.6404700  35.9936500  34.4882380 104.6361200  35.0095820  45.1280530
 104.1334800  35.7501220  45.4674340 105.4517860  35.3979820  44.8117320
  91.4084600  48.7015130  49.1098860  92.2097330  49.0227180  49.5234260
  90.8936420  48.3410710  49.8318770 100.2449230  44.8095000  49.0574270
  99.6387390  44.8326600  48.3170020  99.9403340  44.0778040  49.5941520
 101.6749600  48.5375290  47.6683680 102.6271350  48.4533310  47.6183920
 101.5277820  49.2017000  48.3417470  89.1282410  41.1888590  48.0534910
  89.6321430  40.6095870  48.6251140  88.3889830  41.4728820  48.5911280
  96.1820350  42.5959580  47.5870430  95.4166020  43.1644580  47.5025100
  96.3636310  42.3035790  46.6938660 103.3243700  44.3264910  48.1445450
 104.0653170  44.6640670  47.6412910 102.5616380  44.4956970  47.5915220
  91.1605490  39.3318180  48.9484980  91.2010830  39.0332050  49.8570210
  92.0150990  39.7325790  48.7892500  93.1011300  37.9110280  46.9159470
  92.5707760  37.4201230  46.2882810  93.7699370  38.3394480  46.3817400
 101.9989360  42.3779740  46.6800660 102.4130380  42.5324820  47.5291080
 101.0640360  42.5034960  46.8426440 102.4711530  39.7175900  48.6839810
 103.0532300  38.9628220  48.5960290 102.6473300  40.2483340  47.9071290
  93.5883600  34.8772650  46.9956760  93.4940470  34.2593400  46.2707630
  93.0080990  35.6038940  46.7686670  96.3545040  33.4345890  44.0284150
  95.9062340  33.4570150  43.1829700  95.7210240  33.0364910  44.6254450
  96.7604590  42.3300220  44.6496590  97.1792700  43.1732950  44.4772830
  95.8413220  42.4672260  44.4203370  99.0968490  40.0616400  46.0334430
  99.2164700  39.4657540  46.7729270  99.9562490  40.0986090  45.6135730
 101.4356390  40.6153590  44.6096940 100.9091610  41.1396210  44.0062080
 101.7787730  41.2480980  45.2406670  95.8637260  36.6037750  47.2910250
  96.4536950  36.2953600  47.9788070  95.0457500  36.1317500  47.4470150
 100.6830690  36.2203560  47.5243270  99.9946210  35.5585100  47.4593260
 101.4036710  35.7741830  47.9691730  92.6325580  35.1047580  31.0424530
  92.9351480  35.1115010  30.1343680  93.3720170  34.7545440  31.5392190
  95.8510510  34.0482200  32.0280730  95.5032510  33.3706190  31.4483180
  96.0523280  33.5871710  32.8424120 104.9953900  47.5666620  46.3533530
 104.3955890  47.6259180  45.6097450 105.1247800  46.6271600  46.4830380
 103.6805540  44.2918600  44.4509690 102.8665380  44.7215760  44.7135480
 104.0879740  44.9037010  43.8378740 105.0295940  39.4306800  45.9778910
 104.7982030  39.2019550  45.0776860 105.2900490  40.3506350  45.9323800
  89.7808080  37.8731510  46.8706860  88.8864130  37.8398270  47.2100570
  90.3205630  38.0718300  47.6358110 103.4684010  34.6563230  48.7558610
 104.3454190  34.6646630  49.1392610 103.4804850  33.9194070  48.1450960
 105.0937000  38.5932640  43.1666180 104.1439710  38.5596180  43.2811170
 105.2750010  39.5032750  42.9315950  90.9481440  36.8434320  32.2764810
  91.6573140  36.4217540  31.7912090  90.2321380  36.9109550  31.6448160
  90.5955600  32.8973650  31.3167460  91.3183730  33.4382590  31.6348680
  90.8680120  32.6237070  30.4409000 104.1800130  32.3421200  44.5759720
 104.8172350  32.9555340  44.9418910 104.3275020  32.3781860  43.6308950
  91.6444160  45.4755110  48.1268590  91.6013790  45.1048020  49.0083050
  91.7755170  46.4132680  48.2670410  97.5504610  33.4947390  47.4834820
  97.4893500  34.0869220  48.2330230  98.4904990  33.3873350  47.3385080
 100.1879170  33.1517450  47.1227110 100.8019580  33.4696740  46.4608190
 100.7328730  32.6666040  47.7422970  90.7100430  31.8311710  47.2366170
  91.2583420  31.6499760  46.4732280  90.7755740  31.0405820  47.7722480
 100.9287210  31.7149590  43.4496400 100.0547050  32.0484700  43.2469330
 100.8197960  31.2422770  44.2748270 101.8359190  33.9220460  44.8338120
 101.5072550  33.1072220  44.4539850 102.7841490  33.8790270  44.7103810
  90.0202440  32.9366910  34.9103030  90.7781800  33.0495790  34.3367060
  89.5579610  33.7736110  34.8646460  91.0037120  47.7983360  34.8521310
  90.4784740  48.1791390  34.1483270  90.9281700  48.4234130  35.5731020
  92.3927590  33.4630960  33.4505000  92.9220350  32.6760760  33.3212950
  93.0255910  34.1422150  33.6840530  97.5257380  49.8145330  49.1761000
  98.4524690  49.5789600  49.2196960  97.5107810  50.6417330  48.6947030
  94.7120990  32.4790080  48.9402880  94.4305260  32.9823680  48.1763700
  95.0940690  31.6811830  48.5745010 101.3136450  31.8943660  49.5183350
 101.2001900  32.2138270  50.4134870 102.1306190  32.2956170  49.2220630
 104.0934940  49.0415190  49.0002040 104.8860260  48.5464420  48.7928000
 104.3868090  49.7205330  49.6077650  90.7770420  36.9636850  16.4245510
  89.8887120  37.3052820  16.3225390  91.0611610  36.7637170  15.5326340
  92.9531810  35.5468350  17.4583890  93.0598560  36.4472080  17.7652650
  92.0424170  35.4986320  17.1678540  93.0775640  33.1553280  26.0572490
  93.0794080  33.6725670  25.2518390  92.2479950  32.6783460  26.0342420
  92.7590970  34.8663240  24.0642940  93.1007780  35.7105290  23.7696810
  91.8206780  35.0146980  24.1808280  88.8329930  43.9529120  14.9302020
  88.4557910  44.4416220  14.1986920  89.0903000  44.6254400  15.5608550
 104.4575180  46.2268670  23.9649810 103.7738700  46.8967780  23.9566480
 104.9969470  46.4249320  23.1994670  96.4418860  32.3545510  20.3887530
  96.7493840  31.7992400  19.6723030  95.5119560  32.4889970  20.2060520
 103.2879340  44.7929020  17.7685160 103.1775670  43.8503350  17.8934580
 103.2847590  45.1544660  18.6547920 101.3919360  42.9742640  24.0077600
 101.8088150  42.7602750  23.1731060 102.1159180  43.2315430  24.5786220
  98.8168700  36.6911340  14.1214810  97.8772370  36.8525300  14.2067270
  99.1351960  37.4097020  13.5750800  93.9956390  44.3708330  28.7214390
  93.0984920  44.5948300  28.9687790  94.0209260  44.4943270  27.7725790
 101.0361610  41.2201450  14.6355650 101.4754890  40.3823880  14.4893470
 101.7490030  41.8530850  14.7219790  94.6207960  47.1843350  29.5056910
  94.5923390  47.5886300  28.6385340  94.4572930  46.2553710  29.3428510
 104.6178750  32.4744260  12.9496690 104.3051410  32.5671090  13.8495760
 105.3791220  33.0525290  12.8994120  93.6024550  33.1839130  20.7897700
  93.1592700  33.9648670  20.4582220  94.1609540  33.5069020  21.4968640
  96.7183370  32.8049830  15.6703530  96.0937550  32.8009700  16.3956840
  96.6313490  31.9380790  15.2739500  95.6400450  33.7286460  22.6487300
  95.9372780  34.6349290  22.5679320  96.1886010  33.2405240  22.0346870
 100.6236530  38.3136070  17.1169600 100.0245420  39.0371870  16.9333220
 101.1716140  38.2512850  16.3346050  88.2665570  33.5400410  21.3703080
  87.9778620  34.1103270  22.0828060  89.0111330  33.0604860  21.7334310
  88.4535800  37.4820530  12.5805800  88.3710470  38.4251290  12.7220790
  88.1018860  37.3395440  11.7018150  96.2533930  36.2159560  21.6476150
  96.2569990  35.7749510  20.7980690  97.1485050  36.5376890  21.7547970
  96.3154080  37.2171640  14.6382910  96.4366900  37.1758120  15.5868730
  95.9302590  38.0795790  14.4829640  95.3275580  39.5272780  14.0366210
  94.7592480  39.0791030  13.4102120  96.0364580  39.8865560  13.5031360
  89.4182390  35.0205030  19.5235030  89.1329310  34.6560700  20.3613650
  89.3561250  34.2885490  18.9098170  99.0920980  33.9134290  16.2448400
  98.2785590  33.4147460  16.1693710  98.8982930  34.7532540  15.8284750
 101.8069370  38.2853940  14.5410560 102.6948990  38.5971170  14.3661900
 101.7774460  37.4126190  14.1491140 104.0783640  39.5965780  14.0090420
 103.9947360  40.0280000  13.1586860 104.7977830  40.0564130  14.4417240
  88.9113050  40.1563980  13.4831730  89.7807900  40.4388780  13.7667650
  88.4203370  40.9699850  13.3680540  91.9759640  31.8874840  18.0762530
  91.8474270  31.8792740  19.0247450  91.1521660  32.2257930  17.7253540
  99.6512550  45.0575880  23.5509760 100.2934780  44.3569040  23.6641930
 100.1761900  45.8374320  23.3706650 103.4968270  45.3424500  13.2748900
 103.2705850  44.6254940  13.8673540 103.1064470  45.0936940  12.4370650
  89.2784300  49.3691360  14.0493360  89.6381940  49.9680700  13.3950630
  89.1376640  49.9151250  14.8228390  88.9753570  33.6465960  27.5369230
  88.2612090  33.8462880  28.1421840  89.3948610  32.8705530  27.9084030
 103.0784520  43.2596440  14.9363060 102.7906220  43.7209130  15.7240940
 103.8736690  42.7994210  15.2047280  89.2626160  47.6346220  28.5235760
  89.3717280  46.6940960  28.3831150  88.6106720  47.9000970  27.8749490
  90.8959560  41.9737450  15.6113790  90.2887510  42.7136350  15.6209090
  91.3708910  42.0636810  14.7851990 103.8354380  35.0945210  16.0958240
 103.2067540  35.1990880  15.3816470 103.3406300  35.3141990  16.8852120
  98.2812520  46.8150800  13.5292220  98.3824500  46.6114790  12.5994200
  97.3814260  46.5609080  13.7340000  95.8038410  37.3731160  17.5116120
  95.0954560  37.8417500  17.9529730  96.0882890  36.7153170  18.1461310
  99.8353840  34.0981820  18.9511910  99.7121620  34.1167950  18.0021420
 100.7838400  34.1460760  19.0710310  94.0073430  35.6816240  14.8866830
  94.8563960  36.1186390  14.8207020  93.6404700  35.9936500  15.7138890
  92.9064850  41.9348600  13.3602360  93.6728120  41.8229960  13.9227790
  92.9839540  41.2386570  12.7079130  91.6011610  39.3673670  14.0435250
  91.6815200  38.4201180  14.1552650  92.4931360  39.6980550  14.1495910
  89.2871800  45.5842630  17.0211300  88.3611580  45.8263770  17.0116710
  89.7528230  46.4116890  16.8996050  91.4084600  48.7015130  30.3355370
  92.2097330  49.0227180  30.7490770  90.8936420  48.3410710  31.0575280
  95.5128630  48.6899370  12.9695360  96.3057240  48.9788200  12.5177150
  94.9932980  48.2591540  12.2907840 104.5658800  47.9169500  14.3932100
 104.2800310  47.5034640  13.5786280 104.3678350  48.8457210  14.2732620
  96.0306030  43.9102780  12.8337710  95.9256670  43.2955130  13.5599090
  95.8630250  43.3868670  12.0500720  96.1820350  42.5959580  28.8126940
  95.4166020  43.1644580  28.7281610  96.3636310  42.3035790  27.9195170
  99.2708760  42.9722810  13.4379700  98.7218860  43.4192110  14.0822440
  99.8928020  42.4672060  13.9617370  97.4511520  40.9551340  12.5822100
  97.9717180  40.2400360  12.2163250  98.0979920  41.5937210  12.8822610
  96.3545040  33.4345890  25.2540660  95.9062340  33.4570150  24.4086210
  95.7210240  33.0364910  25.8510960  96.7604590  42.3300220  25.8753100
  97.1792700  43.1732950  25.7029340  95.8413220  42.4672260  25.6459880
  93.8342780  38.0046960  12.2803160  93.6331840  37.1414320  12.6416500
  93.6634830  37.9180320  11.3424760 101.3131090  32.8155190  14.8090040
 101.5933380  31.9723090  15.1649460 100.5396820  33.0478300  15.3228790
  92.6325580  35.1047580  12.2681040  92.9351480  35.1115010  11.3600190
  93.3720170  34.7545440  12.7648700  95.8510510  34.0482200  13.2537240
  95.5032510  33.3706190  12.6739690  96.0523280  33.5871710  14.0680630
  91.6555710  44.4090000  13.1010840  92.0930580  44.9519670  13.7568420
  92.1403440  43.5836950  13.1107180 106.2355350  45.3084440  12.9159750
 105.4048310  45.3761090  13.3866980 106.4127180  46.1988560  12.6126610
 103.6805540  44.2918600  25.6766200 102.8665380  44.7215760  25.9391990
 104.0879740  44.9037010  25.0635250 105.7430980  42.3466290  12.5766470
 106.0179820  43.2545170  12.4485690 105.5541720  42.2828820  13.5128460
 102.1406590  35.3711140  13.8720100 102.5591470  35.1842120  13.0316760
 101.8342650  34.5190190  14.1823030  88.4054230  37.7868780  15.5926940
  87.5018310  38.0498980  15.4178600  88.8894850  38.0579950  14.8126900
  90.9481440  36.8434320  13.5021320  91.6573140  36.4217540  13.0168600
  90.2321380  36.9109550  12.8704670  90.5955600  32.8973650  12.5423970
  91.3183730  33.4382590  12.8605190  90.8680120  32.6237070  11.6665510
  90.2847790  32.1479840  22.4446590  90.9323980  31.5977220  22.0041750
  90.7049630  32.4022990  23.2662400 106.7224680  34.2334990  12.5839370
 107.6473990  34.1016170  12.3757660 106.7000470  34.3127810  13.5375820
 106.7963170  35.0045650  15.2096080 106.0014670  34.9390770  15.7388990
 107.0006450  35.9396290  15.1981430  90.0379790  32.3035510  25.1871910
  89.6894610  32.7599330  25.9530090  89.7067490  31.4092640  25.2694340
  91.6444160  45.4755110  29.3525100  91.6013790  45.1048020  30.2339560
  91.7755170  46.4132680  29.4926920  90.7100430  31.8311710  28.4622680
  91.2583420  31.6499760  27.6988790  90.7755740  31.0405820  28.9978990
  98.6762030  32.6319430  23.6145820  97.8933820  33.1064930  23.8942580
  98.3824960  31.7274260  23.5059000 105.0921670  32.9657770  19.6703730
 105.0310070  32.0218990  19.5234750 105.8713700  33.0737860  20.2157190
  90.0202440  32.9366910  16.1359540  90.7781800  33.0495790  15.5623570
  89.5579610  33.7736110  16.0902970  96.5616250  35.0506180  19.1261850
  95.7490760  34.6763070  18.7857730  97.0657890  34.2951260  19.4283040
 101.0641230  31.7148630  20.3644920 101.6670600  32.2868840  20.8393440
 100.3234220  32.2788070  20.1418820 104.2075830  32.1170190  15.6385200
 104.4026460  33.0153640  15.9052630 103.4205700  31.8857270  16.1318150
  91.0037120  47.7983360  16.0777820  90.4784740  48.1791390  15.3739780
  90.9281700  48.4234130  16.7987530  92.3927590  33.4630960  14.6761510
  92.9220350  32.6760760  14.5469460  93.0255910  34.1422150  14.9097040
  94.5865430  33.2006100  17.7306900  93.9568170  32.4993410  17.8977030
  94.0470570  33.9610230  17.5140060  94.7120990  32.4790080  30.1659390
  94.4305260  32.9823680  29.4020210  95.0940690  31.6811830  29.8001520
  93.6030090  49.7465740  14.9527070  94.3348910  49.4625020  14.4050960
  93.8623760  49.5079020  15.8426450 101.3136450  31.8943660  30.7439860
 101.2001900  32.2138270  31.6391380 102.1306190  32.2956170  30.4477140
  98.3512640  41.6915150   2.9883870  97.5754740  41.2115590   3.2782440
  99.0025570  41.0120800   2.8140030  92.3678470  42.0034960   3.8659630
  91.5363350  41.7483670   4.2656140  92.9759450  42.0745730   4.6017550
 102.3720070  46.0975340   1.7683000 101.9101600  45.3262580   2.0970170
 103.1845620  46.1241410   2.2735450  92.3479730  46.0375050   4.0617650
  92.6507770  45.1472790   3.8827870  93.0923320  46.5945270   3.8339900
  88.7403430  39.5642500   3.5341720  89.3119540  38.7964700   3.5345360
  88.7404970  39.8631260   2.6248330  97.7921630  44.3672340   2.9954030
  97.7229910  43.4262280   2.8343160  98.5541490  44.4573750   3.5676600
  89.9828300  34.9726860   5.3210650  89.8031140  34.0752610   5.6013410
  89.5808380  35.5198730   5.9957600  98.8226800  37.1742720   3.2222960
  99.1991620  36.3014600   3.1096630  98.7246310  37.5101420   2.3313400
  90.6014970  37.4687360   3.9292990  91.2825080  37.7325730   4.5480390
  90.2863020  36.6288230   4.2631000  94.7939540  38.5154720   3.0165580
  95.3017760  39.0135690   3.6570600  95.3252780  37.7389920   2.8404940
 106.8950470  36.6859910   6.7194930 106.1902640  37.0741620   6.2010040
 107.1608390  37.3810200   7.3215860  93.0775640  33.1553280   7.2829000
  93.0794080  33.6725670   6.4774900  92.2479950  32.6783460   7.2598930
  94.3278490  42.7948460   5.4602500  93.9947870  43.4217380   6.1023570
  94.5045170  43.3210340   4.6804170 102.8412400  36.6093540   2.9278840
 102.1367970  36.8978430   3.5081950 103.2024560  37.4193650   2.5678400
  92.7590970  34.8663240   5.2899450  93.1007780  35.7105290   4.9953320
  91.8206780  35.0146980   5.4064790 104.4575180  46.2268670   5.1906320
 103.7738700  46.8967780   5.1822990 104.9969470  46.4249320   4.4251180
 105.9099320  36.0548330   3.3188050 104.9624230  36.0887310   3.4503480
 106.2349310  36.8687280   3.7037410 101.9933920  48.0712800   3.9051500
 102.0061080  47.6675090   3.0373760 101.4409140  48.8460090   3.8012930
 101.3919360  42.9742640   5.2334110 101.8088150  42.7602750   4.3987570
 102.1159180  43.2315430   5.8042730 105.3381460  41.3729860   5.3250350
 104.5100090  41.4422950   4.8500480 105.9331940  41.9584170   4.8566180
 102.3023470  38.1599180   6.2705220 101.8894650  38.9852890   6.5245210
 101.5699420  37.5744220   6.0781580  94.9037960  44.6326640   3.2963100
  94.6066250  44.0272110   2.6170880  95.8537780  44.6703950   3.1852460
  93.1484880  37.7202290   4.9122930  93.6999470  37.8297630   4.1376180
  93.6628390  38.0939890   5.6278160 102.9923570  48.2058510   6.9586200
 102.5154130  49.0130700   6.7658810 102.3085360  47.5536840   7.1112410
  93.9956390  44.3708330   9.9470900  93.0984920  44.5948300  10.1944300
  94.0209260  44.4943270   8.9982300  92.8227610  41.2421650   8.5228270
  92.6835380  42.1144450   8.8915670  91.9408970  40.8994460   8.3776210
  94.6207960  47.1843350  10.7313420  94.5923390  47.5886300   9.8641850
  94.4572930  46.2553710  10.5685020 106.5722780  47.9670450  12.0277590
 107.0482500  48.4453340  12.7066670 107.1929940  47.8987940  11.3023090
  88.7746260  43.0119200   4.4399180  88.8526680  43.1467970   3.4954900
  89.3887940  42.3035090   4.6327300 105.9756030  45.1583300   9.1877600
 106.1019090  44.9195180   8.2694780 106.0177410  44.3267840   9.6599680
  99.8372770  48.8611300   7.7572410 100.3517440  48.7719310   8.5594840
  98.9941850  49.2071000   8.0500320 105.8280040  37.2115760  10.1527340
 105.2124310  37.7195430   9.6242800 105.5076460  36.3114090  10.0953280
  88.8305780  44.0533370   6.9793640  88.9936820  43.5838730   6.1613010
  89.2958230  43.5456930   7.6442480  93.6024550  33.1839130   2.0154210
  93.1592700  33.9648670   1.6838730  94.1609540  33.5069020   2.7225150
  97.8894360  36.0507650   7.6189530  97.4273730  36.2590670   8.4309470
  97.4872470  35.2367000   7.3160200 102.8898870  37.2716600   8.7486190
 102.0392460  36.9722350   9.0695260 102.7300660  37.5158610   7.8370010
  99.9848580  38.7718350  10.8484980 100.3101990  37.9382100  10.5087210
 100.7728910  39.2946870  10.9963310  95.6400450  33.7286460   3.8743810
  95.9372780  34.6349290   3.7935830  96.1886010  33.2405240   3.2603380
  95.8337980  39.2058280  10.4095730  95.7381580  38.2653010  10.2596130
  96.6769960  39.4273350  10.0143800  90.9648520  35.6171950   8.5629510
  90.5711910  36.4647160   8.7702290  90.2766920  34.9798320   8.7538150
  97.5393570  35.7006920  11.6326250  96.8491890  35.5079120  12.2672340
  98.2825870  35.9841560  12.1650550  88.2665570  33.5400410   2.5959590
  87.9778620  34.1103270   3.3084570  89.0111330  33.0604860   2.9590820
  99.8156540  39.5405360   4.4680170  99.0837660  40.0492170   4.8170270
  99.4180880  38.7235340   4.1668950  96.2533930  36.2159560   2.8732660
  96.2569990  35.7749510   2.0237200  97.1485050  36.5376890   2.9804480
  92.1036310  36.0986050   1.8326870  91.7636360  36.5761280   2.5893920
  91.3413630  35.6451170   1.4727970 100.2782450  34.9939040   3.8803110
 100.2955190  35.4447690   4.7244960 100.0298030  34.0944680   4.0936550
 103.7053200  32.4071220   9.7189490 104.0298970  31.6760880  10.2447470
 103.7409710  32.0884860   8.8170480  90.4044760  43.4284800   9.1389450
  90.0199550  42.7878470   9.7372410  90.7156950  44.1320920   9.7084180
  96.5541900  40.2761340   4.6198070  96.9212030  39.8019910   5.3659410
  96.3646960  41.1502910   4.9606410  94.3441270  39.3169980   6.9382280
  94.0398340  40.1961960   7.1632640  95.2987730  39.3769770   6.9739720
 103.6311040  42.5196330   3.3275520 104.3510160  43.0151620   2.9371630
 103.4292860  41.8414220   2.6829390  99.0129840  42.5905390   9.2144520
  98.9467150  41.6701060   8.9602110  98.3834980  42.6880830   9.9289160
  90.4005000  40.1572720   8.0853640  90.0419940  40.8226570   8.6726980
  90.1059560  39.3256270   8.4566260  93.6018120  40.6156960  10.9693190
  93.3018260  40.7614140  10.0721010  94.3729360  40.0562250  10.8766580
  98.9446570  45.4125960   8.9648320  98.9591110  44.4806920   8.7467230
  98.2371670  45.4985720   9.6038090 105.1557780  42.0533300   8.3116900
 104.4305970  42.6462080   8.1146290 105.6833240  42.0456840   7.5130270
  98.3780470  47.0543530   6.0588820  99.0222690  47.2602910   6.7362240
  98.7409910  46.2931930   5.6059670  99.6512550  45.0575880   4.7766270
 100.2934780  44.3569040   4.8898440 100.1761900  45.8374320   4.5963160
  88.9753570  33.6465960   8.7625740  88.2612090  33.8462880   9.3678350
  89.3948610  32.8705530   9.1340540  89.2626160  47.6346220   9.7492270
  89.3717280  46.6940960   9.6087660  88.6106720  47.9000970   9.1006000
  97.2538750  45.9062110  11.1490390  96.9335620  45.1871350  11.6936080
  96.5797110  46.5817180  11.2226450 100.4692350  36.1388270   6.5127190
 100.8373170  35.3183480   6.8406760  99.6090550  36.1990160   6.9282840
  97.4294340  38.7927860   6.7365160  97.9279590  39.2673680   7.4017010
  97.5717290  37.8691380   6.9435190 104.6361200  35.0095820   7.5793550
 104.1334800  35.7501220   7.9187360 105.4517860  35.3979820   7.2630340
 104.9308790  47.4237850   2.7009170 105.0556210  48.2469020   3.1732980
 105.7974350  47.2128580   2.3533320  92.4026320  49.5169060   2.3726300
  93.1388800  48.9684520   2.6434870  92.7867240  50.3825070   2.2332290
  91.4084600  48.7015130  11.5611880  92.2097330  49.0227180  11.9747280
  90.8936420  48.3410710  12.2831790 100.2449230  44.8095000  11.5087290
  99.6387390  44.8326600  10.7683040  99.9403340  44.0778040  12.0454540
 101.6749600  48.5375290  10.1196700 102.6271350  48.4533310  10.0696940
 101.5277820  49.2017000  10.7930490  89.1282410  41.1888590  10.5047930
  89.6321430  40.6095870  11.0764160  88.3889830  41.4728820  11.0424300
  96.1820350  42.5959580  10.0383450  95.4166020  43.1644580   9.9538120
  96.3636310  42.3035790   9.1451680 103.3243700  44.3264910  10.5958470
 104.0653170  44.6640670  10.0925930 102.5616380  44.4956970  10.0428240
  91.1605490  39.3318180  11.3998000  91.2010830  39.0332050  12.3083230
  92.0150990  39.7325790  11.2405520  93.1011300  37.9110280   9.3672490
  92.5707760  37.4201230   8.7395830  93.7699370  38.3394480   8.8330420
 101.9989360  42.3779740   9.1313680 102.4130380  42.5324820   9.9804100
 101.0640360  42.5034960   9.2939460 102.4711530  39.7175900  11.1352830
 103.0532300  38.9628220  11.0473310 102.6473300  40.2483340  10.3584310
  93.5883600  34.8772650   9.4469780  93.4940470  34.2593400   8.7220650
  93.0080990  35.6038940   9.2199690  96.3545040  33.4345890   6.4797170
  95.9062340  33.4570150   5.6342720  95.7210240  33.0364910   7.0767470
  96.7604590  42.3300220   7.1009610  97.1792700  43.1732950   6.9285850
  95.8413220  42.4672260   6.8716390  99.0968490  40.0616400   8.4847450
  99.2164700  39.4657540   9.2242290  99.9562490  40.0986090   8.0648750
 101.4356390  40.6153590   7.0609960 100.9091610  41.1396210   6.4575100
 101.7787730  41.2480980   7.6919690  94.6112010  48.6353230   8.2167340
  94.0733100  49.3599290   7.8976040  94.8645970  48.1583570   7.4264680
  95.8637260  36.6037750   9.7423270  96.4536950  36.2953600  10.4301090
  95.0457500  36.1317500   9.8983170 100.6830690  36.2203560   9.9756290
  99.9946210  35.5585100   9.9106280 101.4036710  35.7741830  10.4204750
  97.4674220  49.8704440   8.4753990  97.3932920  50.7739580   8.7826360
  96.5653060  49.5516340   8.4476060  88.8701510  47.1979030   1.7787610
  89.2004520  46.3300090   1.5466250  89.2992510  47.4037550   2.6092570
 104.9953900  47.5666620   8.8046550 104.3955890  47.6259180   8.0610470
 105.1247800  46.6271600   8.9343400 103.6805540  44.2918600   6.9022710
 102.8665380  44.7215760   7.1648500 104.0879740  44.9037010   6.2891760
  90.2292080  40.9622420   5.4161460  90.5965120  40.8749820   6.2957480
  89.6602900  40.1988970   5.3168320 105.0295940  39.4306800   8.4291930
 104.7982030  39.2019550   7.5289880 105.2900490  40.3506350   8.3836820
  89.7808080  37.8731510   9.3219880  88.8864130  37.8398270   9.6613590
  90.3205630  38.0718300  10.0871130 103.4684010  34.6563230  11.2071630
 104.3454190  34.6646630  11.5905630 103.4804850  33.9194070  10.5963980
 104.9147280  38.5092770   2.0959650 105.4384760  38.0155420   1.4649820
 105.5006700  38.6443130   2.8407220 105.0937000  38.5932640   5.6179200
 104.1439710  38.5596180   5.7324190 105.2750010  39.5032750   5.3828970
  90.2847790  32.1479840   3.6703100  90.9323980  31.5977220   3.2298260
  90.7049630  32.4022990   4.4918910 104.1800130  32.3421200   7.0272740
 104.8172350  32.9555340   7.3931930 104.3275020  32.3781860   6.0821970
  90.0379790  32.3035510   6.4128420  89.6894610  32.7599330   7.1786600
  89.7067490  31.4092640   6.4950850  91.6444160  45.4755110  10.5781610
  91.6013790  45.1048020  11.4596070  91.7755170  46.4132680  10.7183430
  95.3450190  47.0314700   6.1791330  95.1041550  47.2989260   5.2921850
  96.2852830  47.2020430   6.2342190  97.5504610  33.4947390   9.9347840
  97.4893500  34.0869220  10.6843250  98.4904990  33.3873350   9.7898100
 100.1879170  33.1517450   9.5740130 100.8019580  33.4696740   8.9121210
 100.7328730  32.6666040  10.1935990 106.6054350  49.0509080   6.9801970
 106.1112630  49.4477950   6.2629100 105.9967640  48.4258290   7.3739250
  90.7100430  31.8311710   9.6879190  91.2583420  31.6499760   8.9245300
  90.7755740  31.0405820  10.2235500  91.4832190  48.4217360   7.6979390
  90.8892510  48.2902060   8.4369430  91.4756030  47.5855500   7.2321490
 100.9287210  31.7149590   5.9009420 100.0547050  32.0484700   5.6982350
 100.8197960  31.2422770   6.7261290 101.8359190  33.9220460   7.2851140
 101.5072550  33.1072220   6.9052870 102.7841490  33.8790270   7.1616830
 104.2893800  49.6932500   4.2588710 103.8296770  50.4448310   3.8846730
 103.6606260  48.9738970   4.2003510  91.1144420  45.7875740   6.6487430
  90.3878480  45.1681030   6.5813380  91.1753570  46.1816350   5.7785510
  94.7189520  48.0020740   3.4336840  95.2354540  47.3908100   2.9085100
  95.3686900  48.5049520   3.9247850  97.4585020  48.8929230   4.2605820
  97.7462830  48.6383530   3.3838830  97.9708240  48.3406590   4.8511390
  98.6762030  32.6319430   4.8402330  97.8933820  33.1064930   5.1199090
  98.3824960  31.7274260   4.7315510 103.2283100  33.3342530   2.8851420
 103.6691190  33.2787630   2.0373020 102.9590690  34.2500540   2.9561600
  97.5257380  49.8145330  11.6274020  98.4524690  49.5789600  11.6709980
  97.5107810  50.6417330  11.1460050  94.7120990  32.4790080  11.3915900
  94.4305260  32.9823680  10.6276720  95.0940690  31.6811830  11.0258030
 101.3136450  31.8943660  11.9696370 101.2001900  32.2138270  12.8647890
 102.1306190  32.2956170  11.6733650 104.0934940  49.0415190  11.4515060
 104.8860260  48.5464420  11.2441020 104.3868090  49.7205330  12.0590670
 100.2194600  21.1392640  57.4305070 100.1388650  20.2247250  57.1596780
  99.8059020  21.6359710  56.7244780  98.3512640  22.9171660  59.3114340
  97.5754740  22.4372100  59.6012910  99.0025570  22.2377310  59.1370500
 102.3720070  27.3231850  58.0913470 101.9101600  26.5519090  58.4200640
 103.1845620  27.3497920  58.5965920  90.7770420  18.1893360  53.9732490
  89.8887120  18.5309330  53.8712370  91.0611610  17.9893680  53.0813320
  88.7403430  20.7899010  59.8572190  89.3119540  20.0221210  59.8575830
  88.7404970  21.0887770  58.9478800  98.5983380  29.6089860  57.7117460
  97.9794820  30.0647360  57.1411900  99.4535160  29.7641320  57.3107160
  97.7921630  25.5928850  59.3184500  97.7229910  24.6518790  59.1573630
  98.5541490  25.6830260  59.8907070  98.8226800  18.3999230  59.5453430
  99.1991620  17.5271110  59.4327100  98.7246310  18.7357930  58.6543870
  92.9531810  16.7724860  55.0070870  93.0598560  17.6728590  55.3139630
  92.0424170  16.7242830  54.7165520 102.6050920  15.8949670  56.4781770
 103.4260540  15.4046240  56.5207250 102.6385000  16.4847330  57.2313610
  94.7939540  19.7411230  59.3396050  95.3017760  20.2392200  59.9801070
  95.3252780  18.9646430  59.1635410  99.4646730  24.4929100  55.1049370
  98.8464000  24.9578550  54.5412090  99.9769980  25.1856580  55.5218880
 102.8412400  17.8350050  59.2509310 102.1367970  18.1234940  59.8312420
 103.2024560  18.6450160  58.8908870  88.8329930  25.1785630  52.4789000
  88.4557910  25.6672730  51.7473900  89.0903000  25.8510910  53.1095530
 105.9099320  17.2804840  59.6418520 104.9624230  17.3143820  59.7733950
 106.2349310  18.0943790  60.0267880  96.4418860  13.5802020  57.9374510
  96.7493840  13.0248910  57.2210010  95.5119560  13.7146480  57.7547500
 101.9933920  29.2969310  60.2281970 102.0061080  28.8931600  59.3604230
 101.4409140  30.0716600  60.1243400 103.2879340  26.0185530  55.3172140
 103.1775670  25.0759860  55.4421560 103.2847590  26.3801170  56.2034900
  98.8299620  21.6450850  54.6734630  97.9028900  21.5788230  54.9023100
  98.9824440  22.5830980  54.5589870  98.8168700  17.9167850  51.6701790
  97.8772370  18.0781810  51.7554250  99.1351960  18.6353530  51.1237780
 102.8596910  23.2071150  55.1769880 102.2409330  22.8690700  54.5296180
 102.8421360  22.5630910  55.8849070  94.4356260  22.1715590  57.4554360
  94.0313260  21.4592840  56.9600260  94.5219380  21.8268830  58.3442400
  94.9037960  25.8583150  59.6193570  94.6066250  25.2528620  58.9401350
  95.8537780  25.8960460  59.5082930 101.0361610  22.4457960  52.1842630
 101.4754890  21.6080390  52.0380450 101.7490030  23.0787360  52.2706770
  99.1456990  27.3854030  56.1523870  99.5852900  28.1278360  55.7379260
  99.0843880  27.6280600  57.0762830 104.6178750  13.7000770  50.4983670
 104.3051410  13.7927600  51.3982740 105.3791220  14.2781800  50.4481100
  91.1360890  21.0660570  54.9561010  91.0158490  21.7922660  54.3442280
  90.8261780  20.2963480  54.4788920  90.0193890  25.9375900  57.1735830
  89.6121970  26.0790490  56.3189430  90.9106900  25.6536060  56.9707040
 101.8127170  30.3723150  53.5086880 101.6528310  30.0826090  54.4068710
 101.6473880  29.5963280  52.9732110  94.2915550  30.1521680  55.2858500
  94.1158030  29.2357220  55.0726300  93.4371290  30.5108970  55.5256300
 101.5153300  27.8810710  52.0684880 100.8218460  27.8788000  51.4087160
 102.2576160  27.4570030  51.6379050 101.0803230  29.5073420  56.1433370
 101.5360180  28.7262800  56.4571990 101.4195750  30.2180240  56.6874550
  93.6024550  14.4095640  58.3384680  93.1592700  15.1905180  58.0069200
  94.1609540  14.7325530  59.0455620  96.7183370  14.0306340  53.2190510
  96.0937550  14.0266210  53.9443820  96.6313490  13.1637300  52.8226480
  95.6400450  14.9542970  60.1974280  95.9372780  15.8605800  60.1166300
  96.1886010  14.4661750  59.5833850  93.3938770  19.5329210  56.0665930
  93.1679690  19.3166380  56.9712550  92.6131300  19.9657670  55.7211900
 100.6236530  19.5392580  54.6656580 100.0245420  20.2628380  54.4820200
 101.1716140  19.4769360  53.8833030  99.2301400  18.1756120  56.6959860
  99.6230970  18.4928320  55.8828550  99.5918250  17.2968000  56.8104380
  88.2665570  14.7656920  58.9190060  87.9778620  15.3359780  59.6315040
  89.0111330  14.2861370  59.2821290  88.4535800  18.7077040  50.1292780
  88.3710470  19.6507800  50.2707770  88.1018860  18.5651950  49.2505130
  96.2533930  17.4416070  59.1963130  96.2569990  17.0006020  58.3467670
  97.1485050  17.7633400  59.3034950  92.1036310  17.3242560  58.1557340
  91.7636360  17.8017790  58.9124390  91.3413630  16.8707680  57.7958440
  96.3154080  18.4428150  52.1869890  96.4366900  18.4014630  53.1355710
  95.9302590  19.3052300  52.0316620  95.3275580  20.7529290  51.5853190
  94.7592480  20.3047540  50.9589100  96.0364580  21.1122070  51.0518340
  89.4182390  16.2461540  57.0722010  89.1329310  15.8817210  57.9100630
  89.3561250  15.5142000  56.4585150  92.8723060  24.7487480  53.8579600
  92.0985320  24.2085100  53.6978320  93.6017690  24.2294090  53.5197360
 103.6311040  23.7452840  59.6505990 104.3510160  24.2408130  59.2602100
 103.4292860  23.0670730  59.0059860  99.0920980  15.1390800  53.7935380
  98.2785590  14.6403970  53.7180690  98.8982930  15.9789050  53.3771730
 101.8069370  19.5110450  52.0897540 102.6948990  19.8227680  51.9148880
 101.7774460  18.6382700  51.6978120  92.9160460  24.4167860  57.4958410
  93.4339130  23.6136120  57.4415300  92.4644480  24.3547000  58.3375240
  97.8029960  25.6834140  52.7685710  98.1445660  26.4276370  52.2729030
  96.9742670  25.9965260  53.1310540 104.0783640  20.8222290  51.5577400
 103.9947360  21.2536510  50.7073840 104.7977830  21.2820640  51.9904220
 105.1070890  27.6764550  54.2859530 104.4647050  27.0220170  54.5603250
 104.7201550  28.0819640  53.5100200 100.6857370  25.0049980  58.1331220
 101.0381190  24.4078110  57.4732590  99.8019700  24.6794210  58.3039470
  96.7720650  25.7647670  55.5401630  97.4591780  26.3116880  55.9209220
  95.9853070  26.3088400  55.5751240  88.9113050  21.3820490  51.0318710
  89.7807900  21.6645290  51.3154630  88.4203370  22.1956360  50.9167520
  96.0747860  22.7693700  55.1526990  96.5310640  23.5798950  55.3787180
  95.7236070  22.4516840  55.9845480  91.9759640  13.1131350  55.6249510
  91.8474270  13.1049250  56.5734430  91.1521660  13.4514440  55.2740520
 103.4968270  26.5681010  50.8235880 103.2705850  25.8511450  51.4160520
 103.1064470  26.3193450  49.9857630  89.2784300  30.5947870  51.5980340
  89.6381940  31.1937210  50.9437610  89.1376640  31.1407760  52.3715370
 103.0784520  24.4852950  52.4850040 102.7906220  24.9465640  53.2727920
 103.8736690  24.0250720  52.7534260  95.2952920  27.9779070  52.4154010
  95.2863020  28.7108760  51.7998520  94.3751280  27.7310650  52.5080970
  90.8959560  23.1993960  53.1600770  90.2887510  23.9392860  53.1696070
  91.3708910  23.2893320  52.3338970 103.8354380  16.3201720  53.6445220
 103.2067540  16.4247390  52.9303450 103.3406300  16.5398500  54.4339100
  98.2812520  28.0407310  51.0779200  98.3824500  27.8371300  50.1481180
  97.3814260  27.7865590  51.2826980  95.8038410  18.5987670  55.0603100
  95.0954560  19.0674010  55.5016710  96.0882890  17.9409680  55.6948290
  99.8353840  15.3238330  56.4998890  99.7121620  15.3424460  55.5508400
 100.7838400  15.3717270  56.6197290  96.9230630  30.5593630  55.7726870
  97.1772130  30.5215020  54.8506240  95.9743110  30.4326960  55.7655120
  94.0073430  16.9072750  52.4353810  94.8563960  17.3442900  52.3694000
  93.6404700  17.2193010  53.2625870 102.9283210  21.4785510  57.3485380
 101.9873350  21.4935740  57.5233070 103.2427280  20.6921470  57.7945680
  92.9064850  23.1605110  50.9089340  93.6728120  23.0486470  51.4714770
  92.9839540  22.4643080  50.2566110  91.6011610  20.5930180  51.5922230
  91.6815200  19.6457690  51.7039630  92.4931360  20.9237060  51.6982890
 104.9308790  28.6494360  59.0239640 105.0556210  29.4725530  59.4963450
 105.7974350  28.4385090  58.6763790  92.4026320  30.7425570  58.6956770
  93.1388800  30.1941030  58.9665340  92.7867240  31.6081580  58.5562760
  89.2871800  26.8099140  54.5698280  88.3611580  27.0520280  54.5603690
  89.7528230  27.6373400  54.4483030  95.5128630  29.9155880  50.5182340
  96.3057240  30.2044710  50.0664130  94.9932980  29.4848050  49.8394820
 104.5658800  29.1426010  51.9419080 104.2800310  28.7291150  51.1273260
 104.3678350  30.0713720  51.8219600  96.0306030  25.1359290  50.3824690
  95.9256670  24.5211640  51.1086070  95.8630250  24.6125180  49.5987700
  99.2708760  24.1979320  50.9866680  98.7218860  24.6448620  51.6309420
  99.8928020  23.6928570  51.5104350  94.9383880  23.1570240  52.8831980
  95.3600300  22.9910110  53.7263370  95.0634720  22.3470470  52.3887120
  97.4511520  22.1807850  50.1309080  97.9717180  21.4656870  49.7650230
  98.0979920  22.8193720  50.4309590  93.8342780  19.2303470  49.8290140
  93.6331840  18.3670830  50.1903480  93.6634830  19.1436830  48.8911740
 101.3131090  14.0411700  52.3577020 101.5933380  13.1979600  52.7136440
 100.5396820  14.2734810  52.8715770  92.6325580  16.3304090  49.8168020
  92.9351480  16.3371520  48.9087170  93.3720170  15.9801950  50.3135680
  95.8510510  15.2738710  50.8024220  95.5032510  14.5962700  50.2226670
  96.0523280  14.8128220  51.6167610  98.0159550  30.2619460  52.4210820
  98.9110340  30.6004430  52.4429580  98.0477180  29.5398870  51.7935100
  91.6555710  25.6346510  50.6497820  92.0930580  26.1776180  51.3055400
  92.1403440  24.8093460  50.6594160  88.8701510  28.4235540  58.1018080
  89.2004520  27.5556600  57.8696720  89.2992510  28.6294060  58.9323040
  93.4663430  26.7544550  55.7620050  93.1658970  26.6309520  56.6623960
  93.3600920  25.8953140  55.3535780 106.2355350  26.5340950  50.4646730
 105.4048310  26.6017600  50.9353960 106.4127180  27.4245070  50.1613590
 105.6911810  23.2788430  52.9680930 106.4530720  23.8485080  53.0740620
 105.7066180  22.7115630  53.7389240  89.1916150  21.8026360  57.1988590
  88.5364990  21.5338000  56.5548290  90.0294100  21.6930840  56.7490570
 106.6971780  24.1338530  57.8122860 107.0680610  23.3505850  57.4058830
 107.3373710  24.8227630  57.6340160 105.7430980  23.5722800  50.1253450
 106.0179820  24.4801680  49.9972670 105.5541720  23.5085330  51.0615440
 102.1406590  16.5967650  51.4207080 102.5591470  16.4098630  50.5803740
 101.8342650  15.7446700  51.7310010 105.6396320  21.5091790  55.1182880
 105.2639920  20.7419720  54.6864170 104.9099440  21.8914490  55.6057810
  88.4054230  19.0125290  53.1413920  87.5018310  19.2755490  52.9665580
  88.8894850  19.2836460  52.3613880 104.9147280  19.7349280  58.4190120
 105.4384760  19.2411930  57.7880290 105.5006700  19.8699640  59.1637690
  90.9481440  18.0690830  51.0508300  91.6573140  17.6474050  50.5655580
  90.2321380  18.1366060  50.4191650  90.5955600  14.1230160  50.0910950
  91.3183730  14.6639100  50.4092170  90.8680120  13.8493580  49.2152490
 104.4047250  18.9922630  54.3582530 104.9006370  18.7593500  55.1431410
 104.2063320  18.1534470  53.9420170 105.8334410  17.6283580  56.8920210
 105.7233690  17.4739620  57.8302480 106.5942000  17.1004520  56.6495620
 106.7224680  15.4591500  50.1326350 107.6473990  15.3272680  49.9244640
 106.7000470  15.5384320  51.0862800 106.7963170  16.2302160  52.7583060
 106.0014670  16.1647280  53.2875970 107.0006450  17.1652800  52.7468410
 103.7381590  30.2693710  56.7521450 104.3340660  29.9478280  56.0755870
 103.9959740  29.7965530  57.5434720  94.7189520  29.2277250  59.7567310
  95.2354540  28.6164610  59.2315570  95.3686900  29.7306030  60.2478320
 103.2283100  14.5599040  59.2081890 103.6691190  14.5044140  58.3603490
 102.9590690  15.4757050  59.2792070 105.0921670  14.1914280  57.2190710
 105.0310070  13.2475500  57.0721730 105.8713700  14.2994370  57.7644170
  89.3974420  30.3306640  56.1814660  89.2296460  29.6977320  56.8796550
  88.5308930  30.5366040  55.8308850  90.0202440  14.1623420  53.6846520
  90.7781800  14.2752300  53.1110550  89.5579610  14.9992620  53.6389950
  96.5616250  16.2762690  56.6748830  95.7490760  15.9019580  56.3344710
  97.0657890  15.5207770  56.9770020 101.0641230  12.9405140  57.9131900
 101.6670600  13.5125350  58.3880420 100.3234220  13.5044580  57.6905800
 104.2075830  13.3426700  53.1872180 104.4026460  14.2410150  53.4539610
 103.4205700  13.1113780  53.6805130  91.0037120  29.0239870  53.6264800
  90.4784740  29.4047900  52.9226760  90.9281700  29.6490640  54.3474510
  92.3927590  14.6887470  52.2248490  92.9220350  13.9017270  52.0956440
  93.0255910  15.3678660  52.4584020  94.5865430  14.4262610  55.2793880
  93.9568170  13.7249920  55.4464010  94.0470570  15.1866740  55.0627040
 105.7602440  30.5827410  54.9478740 105.9354630  29.8965150  54.3039660
 105.0624010  31.1074460  54.5555410  93.6030090  30.9722250  52.5014050
  94.3348910  30.6881530  51.9537940  93.8623760  30.7335530  53.3913430
  92.7644880  27.0886980  52.5060380  92.1353760  27.5572080  53.0546210
  92.8792710  26.2436200  52.9406570 100.2194600  21.1392640  38.6561580
 100.1388650  20.2247250  38.3853290  99.8059020  21.6359710  37.9501290
  88.7403430  20.7899010  41.0828700  89.3119540  20.0221210  41.0832340
  88.7404970  21.0887770  40.1735310  89.9828300  16.1983370  42.8697630
  89.8031140  15.3009120  43.1500390  89.5808380  16.7455240  43.5444580
 102.6050920  15.8949670  37.7038280 103.4260540  15.4046240  37.7463760
 102.6385000  16.4847330  38.4570120  90.6014970  18.6943870  41.4779970
  91.2825080  18.9582240  42.0967370  90.2863020  17.8544740  41.8117980
 106.8950470  17.9116420  44.2681910 106.1902640  18.2998130  43.7497020
 107.1608390  18.6066710  44.8702840  93.0775640  14.3809790  44.8315980
  93.0794080  14.8982180  44.0261880  92.2479950  13.9039970  44.8085910
  94.3278490  24.0204970  43.0089480  93.9947870  24.6473890  43.6510550
  94.5045170  24.5466850  42.2291150 102.8412400  17.8350050  40.4765820
 102.1367970  18.1234940  41.0568930 103.2024560  18.6450160  40.1165380
  92.7590970  16.0919750  42.8386430  93.1007780  16.9361800  42.5440300
  91.8206780  16.2403490  42.9551770  93.5397590  25.9885770  44.8238660
  94.1571590  26.6636850  44.5423110  92.6790710  26.3973750  44.7326160
  88.8329930  25.1785630  33.7045510  88.4557910  25.6672730  32.9730410
  89.0903000  25.8510910  34.3352040 104.4575180  27.4525180  42.7393300
 103.7738700  28.1224290  42.7309970 104.9969470  27.6505830  41.9738160
 105.9099320  17.2804840  40.8675030 104.9624230  17.3143820  40.9990460
 106.2349310  18.0943790  41.2524390 101.3919360  24.1999150  42.7821090
 101.8088150  23.9859260  41.9474550 102.1159180  24.4571940  43.3529710
  98.8168700  17.9167850  32.8958300  97.8772370  18.0781810  32.9810760
  99.1351960  18.6353530  32.3494290 105.3381460  22.5986370  42.8737330
 104.5100090  22.6679460  42.3987460 105.9331940  23.1840680  42.4053160
 102.3023470  19.3855690  43.8192200 101.8894650  20.2109400  44.0732190
 101.5699420  18.8000730  43.6268560  93.1484880  18.9458800  42.4609910
  93.6999470  19.0554140  41.6863160  93.6628390  19.3196400  43.1765140
 102.9923570  29.4315020  44.5073180 102.5154130  30.2387210  44.3145790
 102.3085360  28.7793350  44.6599390  93.9956390  25.5964840  47.4957880
  93.0984920  25.8204810  47.7431280  94.0209260  25.7199780  46.5469280
  92.8227610  22.4678160  46.0715250  92.6835380  23.3400960  46.4402650
  91.9408970  22.1250970  45.9263190  94.6207960  28.4099860  48.2800400
  94.5923390  28.8142810  47.4128830  94.4572930  27.4810220  48.1172000
 104.6178750  13.7000770  31.7240180 104.3051410  13.7927600  32.6239250
 105.3791220  14.2781800  31.6737610 106.5722780  29.1926960  49.5764570
 107.0482500  29.6709850  50.2553650 107.1929940  29.1244450  48.8510070
 105.9756030  26.3839810  46.7364580 106.1019090  26.1451690  45.8181760
 106.0177410  25.5524350  47.2086660  99.8372770  30.0867810  45.3059390
 100.3517440  29.9975820  46.1081820  98.9941850  30.4327510  45.5987300
 105.8280040  18.4372270  47.7014320 105.2124310  18.9451940  47.1729780
 105.5076460  17.5370600  47.6440260  88.8305780  25.2789880  44.5280620
  88.9936820  24.8095240  43.7099990  89.2958230  24.7713440  45.1929460
  97.8894360  17.2764160  45.1676510  97.4273730  17.4847180  45.9796450
  97.4872470  16.4623510  44.8647180 102.8898870  18.4973110  46.2973170
 102.0392460  18.1978860  46.6182240 102.7300660  18.7415120  45.3856990
  99.9848580  19.9974860  48.3971960 100.3101990  19.1638610  48.0574190
 100.7728910  20.5203380  48.5450290  95.8337980  20.4314790  47.9582710
  95.7381580  19.4909520  47.8083110  96.6769960  20.6529860  47.5630780
  90.9648520  16.8428460  46.1116490  90.5711910  17.6903670  46.3189270
  90.2766920  16.2054830  46.3025130  97.5393570  16.9263430  49.1813230
  96.8491890  16.7335630  49.8159320  98.2825870  17.2098070  49.7137530
  88.2665570  14.7656920  40.1446570  87.9778620  15.3359780  40.8571550
  89.0111330  14.2861370  40.5077800  88.4535800  18.7077040  31.3549290
  88.3710470  19.6507800  31.4964280  88.1018860  18.5651950  30.4761640
  99.8156540  20.7661870  42.0167150  99.0837660  21.2748680  42.3657250
  99.4180880  19.9491850  41.7155930 100.2782450  16.2195550  41.4290090
 100.2955190  16.6704200  42.2731940 100.0298030  15.3201190  41.6423530
  95.3275580  20.7529290  32.8109700  94.7592480  20.3047540  32.1845610
  96.0364580  21.1122070  32.2774850 103.7053200  13.6327730  47.2676470
 104.0298970  12.9017390  47.7934450 103.7409710  13.3141370  46.3657460
  90.4044760  24.6541310  46.6876430  90.0199550  24.0134980  47.2859390
  90.7156950  25.3577430  47.2571160  94.3441270  20.5426490  44.4869260
  94.0398340  21.4218470  44.7119620  95.2987730  20.6026280  44.5226700
 103.6311040  23.7452840  40.8762500 104.3510160  24.2408130  40.4858610
 103.4292860  23.0670730  40.2316370  99.0129840  23.8161900  46.7631500
  98.9467150  22.8957570  46.5089090  98.3834980  23.9137340  47.4776140
 101.8069370  19.5110450  33.3154050 102.6948990  19.8227680  33.1405390
 101.7774460  18.6382700  32.9234630  97.8029960  25.6834140  33.9942220
  98.1445660  26.4276370  33.4985540  96.9742670  25.9965260  34.3567050
  90.4005000  21.3829230  45.6340620  90.0419940  22.0483080  46.2213960
  90.1059560  20.5512780  46.0053240  93.6018120  21.8413470  48.5180170
  93.3018260  21.9870650  47.6207990  94.3729360  21.2818760  48.4253560
  98.9446570  26.6382470  46.5135300  98.9591110  25.7063430  46.2954210
  98.2371670  26.7242230  47.1525070 104.0783640  20.8222290  32.7833910
 103.9947360  21.2536510  31.9330350 104.7977830  21.2820640  33.2160730
 105.1557780  23.2789810  45.8603880 104.4305970  23.8718590  45.6633270
 105.6833240  23.2713350  45.0617250  88.9113050  21.3820490  32.2575220
  89.7807900  21.6645290  32.5411140  88.4203370  22.1956360  32.1424030
  98.3780470  28.2800040  43.6075800  99.0222690  28.4859420  44.2849220
  98.7409910  27.5188440  43.1546650 101.4250170  27.0827290  45.5289310
 101.7606410  27.6693980  46.2067230 100.5050510  26.9520000  45.7587100
  89.2784300  30.5947870  32.8236850  89.6381940  31.1937210  32.1694120
  89.1376640  31.1407760  33.5971880  88.9753570  14.8722470  46.3112720
  88.2612090  15.0719390  46.9165330  89.3948610  14.0962040  46.6827520
  89.2626160  28.8602730  47.2979250  89.3717280  27.9197470  47.1574640
  88.6106720  29.1257480  46.6492980  97.2538750  27.1318620  48.6977370
  96.9335620  26.4127860  49.2423060  96.5797110  27.8073690  48.7713430
  95.2952920  27.9779070  33.6410520  95.2863020  28.7108760  33.0255030
  94.3751280  27.7310650  33.7337480  90.8959560  23.1993960  34.3857280
  90.2887510  23.9392860  34.3952580  91.3708910  23.2893320  33.5595480
 100.4692350  17.3644780  44.0614170 100.8373170  16.5439990  44.3893740
  99.6090550  17.4246670  44.4769820 103.8354380  16.3201720  34.8701730
 103.2067540  16.4247390  34.1559960 103.3406300  16.5398500  35.6595610
  98.2812520  28.0407310  32.3035710  98.3824500  27.8371300  31.3737690
  97.3814260  27.7865590  32.5083490  97.4294340  20.0184370  44.2852140
  97.9279590  20.4930190  44.9503990  97.5717290  19.0947890  44.4922170
 104.6361200  16.2352330  45.1280530 104.1334800  16.9757730  45.4674340
 105.4517860  16.6236330  44.8117320 102.9283210  21.4785510  38.5741890
 101.9873350  21.4935740  38.7489580 103.2427280  20.6921470  39.0202190
  92.9064850  23.1605110  32.1345850  93.6728120  23.0486470  32.6971280
  92.9839540  22.4643080  31.4822620  91.6011610  20.5930180  32.8178740
  91.6815200  19.6457690  32.9296140  92.4931360  20.9237060  32.9239400
 104.9308790  28.6494360  40.2496150 105.0556210  29.4725530  40.7219960
 105.7974350  28.4385090  39.9020300  89.2871800  26.8099140  35.7954790
  88.3611580  27.0520280  35.7860200  89.7528230  27.6373400  35.6739540
  91.4084600  29.9271640  49.1098860  92.2097330  30.2483690  49.5234260
  90.8936420  29.5667220  49.8318770  95.5128630  29.9155880  31.7438850
  96.3057240  30.2044710  31.2920640  94.9932980  29.4848050  31.0651330
 100.2449230  26.0351510  49.0574270  99.6387390  26.0583110  48.3170020
  99.9403340  25.3034550  49.5941520 101.6749600  29.7631800  47.6683680
 102.6271350  29.6789820  47.6183920 101.5277820  30.4273510  48.3417470
  89.1282410  22.4145100  48.0534910  89.6321430  21.8352380  48.6251140
  88.3889830  22.6985330  48.5911280  96.0306030  25.1359290  31.6081200
  95.9256670  24.5211640  32.3342580  95.8630250  24.6125180  30.8244210
  96.1820350  23.8216090  47.5870430  95.4166020  24.3901090  47.5025100
  96.3636310  23.5292300  46.6938660  99.2708760  24.1979320  32.2123190
  98.7218860  24.6448620  32.8565930  99.8928020  23.6928570  32.7360860
 103.3243700  25.5521420  48.1445450 104.0653170  25.8897180  47.6412910
 102.5616380  25.7213480  47.5915220  91.1605490  20.5574690  48.9484980
  91.2010830  20.2588560  49.8570210  92.0150990  20.9582300  48.7892500
  93.1011300  19.1366790  46.9159470  92.5707760  18.6457740  46.2882810
  93.7699370  19.5650990  46.3817400  97.4511520  22.1807850  31.3565590
  97.9717180  21.4656870  30.9906740  98.0979920  22.8193720  31.6566100
 101.9989360  23.6036250  46.6800660 102.4130380  23.7581330  47.5291080
 101.0640360  23.7291470  46.8426440 102.4711530  20.9432410  48.6839810
 103.0532300  20.1884730  48.5960290 102.6473300  21.4739850  47.9071290
  93.5883600  16.1029160  46.9956760  93.4940470  15.4849910  46.2707630
  93.0080990  16.8295450  46.7686670  96.3545040  14.6602400  44.0284150
  95.9062340  14.6826660  43.1829700  95.7210240  14.2621420  44.6254450
  96.7604590  23.5556730  44.6496590  97.1792700  24.3989460  44.4772830
  95.8413220  23.6928770  44.4203370  99.0968490  21.2872910  46.0334430
  99.2164700  20.6914050  46.7729270  99.9562490  21.3242600  45.6135730
 101.4356390  21.8410100  44.6096940 100.9091610  22.3652720  44.0062080
 101.7787730  22.4737490  45.2406670  93.8342780  19.2303470  31.0546650
  93.6331840  18.3670830  31.4159990  93.6634830  19.1436830  30.1168250
  94.6112010  29.8609740  45.7654320  94.0733100  30.5855800  45.4463020
  94.8645970  29.3840080  44.9751660  95.8637260  17.8294260  47.2910250
  96.4536950  17.5210110  47.9788070  95.0457500  17.3574010  47.4470150
 100.6830690  17.4460070  47.5243270  99.9946210  16.7841610  47.4593260
 101.4036710  16.9998340  47.9691730 101.3131090  14.0411700  33.5833530
 101.5933380  13.1979600  33.9392950 100.5396820  14.2734810  34.0972280
  92.6325580  16.3304090  31.0424530  92.9351480  16.3371520  30.1343680
  93.3720170  15.9801950  31.5392190  97.4674220  31.0960950  46.0240970
  97.3932920  31.9996090  46.3313340  96.5653060  30.7772850  45.9963040
  91.6555710  25.6346510  31.8754330  92.0930580  26.1776180  32.5311910
  92.1403440  24.8093460  31.8850670 104.9953900  28.7923130  46.3533530
 104.3955890  28.8515690  45.6097450 105.1247800  27.8528110  46.4830380
 103.6805540  25.5175110  44.4509690 102.8665380  25.9472270  44.7135480
 104.0879740  26.1293520  43.8378740 105.7430980  23.5722800  31.3509960
 106.0179820  24.4801680  31.2229180 105.5541720  23.5085330  32.2871950
 102.1406590  16.5967650  32.6463590 102.5591470  16.4098630  31.8060250
 101.8342650  15.7446700  32.9566520  90.2292080  22.1878930  42.9648440
  90.5965120  22.1006330  43.8444460  89.6602900  21.4245480  42.8655300
 105.0295940  20.6563310  45.9778910 104.7982030  20.4276060  45.0776860
 105.2900490  21.5762860  45.9323800  89.7808080  19.0988020  46.8706860
  88.8864130  19.0654780  47.2100570  90.3205630  19.2974810  47.6358110
 103.4684010  15.8819740  48.7558610 104.3454190  15.8903140  49.1392610
 103.4804850  15.1450580  48.1450960  88.4054230  19.0125290  34.3670430
  87.5018310  19.2755490  34.1922090  88.8894850  19.2836460  33.5870390
 104.9147280  19.7349280  39.6446630 105.4384760  19.2411930  39.0136800
 105.5006700  19.8699640  40.3894200 105.0937000  19.8189150  43.1666180
 104.1439710  19.7852690  43.2811170 105.2750010  20.7289260  42.9315950
  90.5955600  14.1230160  31.3167460  91.3183730  14.6639100  31.6348680
  90.8680120  13.8493580  30.4409000 104.4047250  18.9922630  35.5839040
 104.9006370  18.7593500  36.3687920 104.2063320  18.1534470  35.1676680
  90.2847790  13.3736350  41.2190080  90.9323980  12.8233730  40.7785240
  90.7049630  13.6279500  42.0405890 105.8334410  17.6283580  38.1176720
 105.7233690  17.4739620  39.0558990 106.5942000  17.1004520  37.8752130
 104.1800130  13.5677710  44.5759720 104.8172350  14.1811850  44.9418910
 104.3275020  13.6038370  43.6308950 106.7224680  15.4591500  31.3582860
 107.6473990  15.3272680  31.1501150 106.7000470  15.5384320  32.3119310
 106.7963170  16.2302160  33.9839570 106.0014670  16.1647280  34.5132480
 107.0006450  17.1652800  33.9724920  90.0379790  13.5292020  43.9615400
  89.6894610  13.9855840  44.7273580  89.7067490  12.6349150  44.0437830
  91.6444160  26.7011620  48.1268590  91.6013790  26.3304530  49.0083050
  91.7755170  27.6389190  48.2670410  97.5504610  14.7203900  47.4834820
  97.4893500  15.3125730  48.2330230  98.4904990  14.6129860  47.3385080
 100.1879170  14.3773960  47.1227110 100.8019580  14.6953250  46.4608190
 100.7328730  13.8922550  47.7422970 106.6054350  30.2765590  44.5288950
 106.1112630  30.6734460  43.8116080 105.9967640  29.6514800  44.9226230
  90.7100430  13.0568220  47.2366170  91.2583420  12.8756270  46.4732280
  90.7755740  12.2662330  47.7722480  91.4832190  29.6473870  45.2466370
  90.8892510  29.5158570  45.9856410  91.4756030  28.8112010  44.7808470
 100.9287210  12.9406100  43.4496400 100.0547050  13.2741210  43.2469330
 100.8197960  12.4679280  44.2748270 101.8359190  15.1476970  44.8338120
 101.5072550  14.3328730  44.4539850 102.7841490  15.1046780  44.7103810
  91.1144420  27.0132250  44.1974410  90.3878480  26.3937540  44.1300360
  91.1753570  27.4072860  43.3272490  98.6762030  13.8575940  42.3889310
  97.8933820  14.3321440  42.6686070  98.3824960  12.9530770  42.2802490
 103.2283100  14.5599040  40.4338400 103.6691190  14.5044140  39.5860000
 102.9590690  15.4757050  40.5048580 105.0921670  14.1914280  38.4447220
 105.0310070  13.2475500  38.2978240 105.8713700  14.2994370  38.9900680
 104.2075830  13.3426700  34.4128690 104.4026460  14.2410150  34.6796120
 103.4205700  13.1113780  34.9061640  91.0037120  29.0239870  34.8521310
  90.4784740  29.4047900  34.1483270  90.9281700  29.6490640  35.5731020
  97.5257380  31.0401840  49.1761000  98.4524690  30.8046110  49.2196960
  97.5107810  31.8673840  48.6947030  94.7120990  13.7046590  48.9402880
  94.4305260  14.2080190  48.1763700  95.0940690  12.9068340  48.5745010
  93.6030090  30.9722250  33.7270560  94.3348910  30.6881530  33.1794450
  93.8623760  30.7335530  34.6169940  92.7644880  27.0886980  33.7316890
  92.1353760  27.5572080  34.2802720  92.8792710  26.2436200  34.1663080
 101.3136450  13.1200170  49.5183350 101.2001900  13.4394780  50.4134870
 102.1306190  13.5212680  49.2220630 104.0934940  30.2671700  49.0002040
 104.8860260  29.7720930  48.7928000 104.3868090  30.9461840  49.6077650
 100.2194600  21.1392640  19.8818090 100.1388650  20.2247250  19.6109800
  99.8059020  21.6359710  19.1757800  98.3512640  22.9171660  21.7627360
  97.5754740  22.4372100  22.0525930  99.0025570  22.2377310  21.5883520
  92.3678470  23.2291470  22.6403120  91.5363350  22.9740180  23.0399630
  92.9759450  23.3002240  23.3761040 102.3720070  27.3231850  20.5426490
 101.9101600  26.5519090  20.8713660 103.1845620  27.3497920  21.0478940
  92.3479730  27.2631560  22.8361140  92.6507770  26.3729300  22.6571360
  93.0923320  27.8201780  22.6083390  90.7770420  18.1893360  16.4245510
  89.8887120  18.5309330  16.3225390  91.0611610  17.9893680  15.5326340
  88.7403430  20.7899010  22.3085210  89.3119540  20.0221210  22.3088850
  88.7404970  21.0887770  21.3991820  98.5983380  29.6089860  20.1630480
  97.9794820  30.0647360  19.5924920  99.4535160  29.7641320  19.7620180
  97.7921630  25.5928850  21.7697520  97.7229910  24.6518790  21.6086650
  98.5541490  25.6830260  22.3420090  89.9828300  16.1983370  24.0954140
  89.8031140  15.3009120  24.3756900  89.5808380  16.7455240  24.7701090
  98.8226800  18.3999230  21.9966450  99.1991620  17.5271110  21.8840120
  98.7246310  18.7357930  21.1056890  92.9531810  16.7724860  17.4583890
  93.0598560  17.6728590  17.7652650  92.0424170  16.7242830  17.1678540
 102.6050920  15.8949670  18.9294790 103.4260540  15.4046240  18.9720270
 102.6385000  16.4847330  19.6826630  90.6014970  18.6943870  22.7036480
  91.2825080  18.9582240  23.3223880  90.2863020  17.8544740  23.0374490
  94.7939540  19.7411230  21.7909070  95.3017760  20.2392200  22.4314090
  95.3252780  18.9646430  21.6148430 106.8950470  17.9116420  25.4938420
 106.1902640  18.2998130  24.9753530 107.1608390  18.6066710  26.0959350
  93.0775640  14.3809790  26.0572490  93.0794080  14.8982180  25.2518390
  92.2479950  13.9039970  26.0342420  99.4646730  24.4929100  17.5562390
  98.8464000  24.9578550  16.9925110  99.9769980  25.1856580  17.9731900
  94.3278490  24.0204970  24.2345990  93.9947870  24.6473890  24.8767060
  94.5045170  24.5466850  23.4547660 102.8412400  17.8350050  21.7022330
 102.1367970  18.1234940  22.2825440 103.2024560  18.6450160  21.3421890
  92.7590970  16.0919750  24.0642940  93.1007780  16.9361800  23.7696810
  91.8206780  16.2403490  24.1808280  93.5397590  25.9885770  26.0495170
  94.1571590  26.6636850  25.7679620  92.6790710  26.3973750  25.9582670
  88.8329930  25.1785630  14.9302020  88.4557910  25.6672730  14.1986920
  89.0903000  25.8510910  15.5608550 104.4575180  27.4525180  23.9649810
 103.7738700  28.1224290  23.9566480 104.9969470  27.6505830  23.1994670
 105.9099320  17.2804840  22.0931540 104.9624230  17.3143820  22.2246970
 106.2349310  18.0943790  22.4780900  96.4418860  13.5802020  20.3887530
  96.7493840  13.0248910  19.6723030  95.5119560  13.7146480  20.2060520
 101.9933920  29.2969310  22.6794990 102.0061080  28.8931600  21.8117250
 101.4409140  30.0716600  22.5756420 103.2879340  26.0185530  17.7685160
 103.1775670  25.0759860  17.8934580 103.2847590  26.3801170  18.6547920
 101.3919360  24.1999150  24.0077600 101.8088150  23.9859260  23.1731060
 102.1159180  24.4571940  24.5786220  98.8299620  21.6450850  17.1247650
  97.9028900  21.5788230  17.3536120  98.9824440  22.5830980  17.0102890
  98.8168700  17.9167850  14.1214810  97.8772370  18.0781810  14.2067270
  99.1351960  18.6353530  13.5750800 105.3381460  22.5986370  24.0993840
 104.5100090  22.6679460  23.6243970 105.9331940  23.1840680  23.6309670
 102.8596910  23.2071150  17.6282900 102.2409330  22.8690700  16.9809200
 102.8421360  22.5630910  18.3362090 102.3023470  19.3855690  25.0448710
 101.8894650  20.2109400  25.2988700 101.5699420  18.8000730  24.8525070
  94.4356260  22.1715590  19.9067380  94.0313260  21.4592840  19.4113280
  94.5219380  21.8268830  20.7955420  94.9037960  25.8583150  22.0706590
  94.6066250  25.2528620  21.3914370  95.8537780  25.8960460  21.9595950
  93.1484880  18.9458800  23.6866420  93.6999470  19.0554140  22.9119670
  93.6628390  19.3196400  24.4021650 102.9923570  29.4315020  25.7329690
 102.5154130  30.2387210  25.5402300 102.3085360  28.7793350  25.8855900
  93.9956390  25.5964840  28.7214390  93.0984920  25.8204810  28.9687790
  94.0209260  25.7199780  27.7725790 101.0361610  22.4457960  14.6355650
 101.4754890  21.6080390  14.4893470 101.7490030  23.0787360  14.7219790
  92.8227610  22.4678160  27.2971760  92.6835380  23.3400960  27.6659160
  91.9408970  22.1250970  27.1519700  99.1456990  27.3854030  18.6036890
  99.5852900  28.1278360  18.1892280  99.0843880  27.6280600  19.5275850
  94.6207960  28.4099860  29.5056910  94.5923390  28.8142810  28.6385340
  94.4572930  27.4810220  29.3428510 104.6178750  13.7000770  12.9496690
 104.3051410  13.7927600  13.8495760 105.3791220  14.2781800  12.8994120
  91.1360890  21.0660570  17.4074030  91.0158490  21.7922660  16.7955300
  90.8261780  20.2963480  16.9301940 106.5722780  29.1926960  30.8021080
 107.0482500  29.6709850  31.4810160 107.1929940  29.1244450  30.0766580
  88.7746260  24.2375710  23.2142670  88.8526680  24.3724480  22.2698390
  89.3887940  23.5291600  23.4070790  90.0193890  25.9375900  19.6248850
  89.6121970  26.0790490  18.7702450  90.9106900  25.6536060  19.4220060
 105.9756030  26.3839810  27.9621090 106.1019090  26.1451690  27.0438270
 106.0177410  25.5524350  28.4343170  99.8372770  30.0867810  26.5315900
 100.3517440  29.9975820  27.3338330  98.9941850  30.4327510  26.8243810
 101.8127170  30.3723150  15.9599900 101.6528310  30.0826090  16.8581730
 101.6473880  29.5963280  15.4245130  94.2915550  30.1521680  17.7371520
  94.1158030  29.2357220  17.5239320  93.4371290  30.5108970  17.9769320
 101.5153300  27.8810710  14.5197900 100.8218460  27.8788000  13.8600180
 102.2576160  27.4570030  14.0892070 101.0803230  29.5073420  18.5946390
 101.5360180  28.7262800  18.9085010 101.4195750  30.2180240  19.1387570
 105.8280040  18.4372270  28.9270830 105.2124310  18.9451940  28.3986290
 105.5076460  17.5370600  28.8696770  88.8305780  25.2789880  25.7537130
  88.9936820  24.8095240  24.9356500  89.2958230  24.7713440  26.4185970
  93.6024550  14.4095640  20.7897700  93.1592700  15.1905180  20.4582220
  94.1609540  14.7325530  21.4968640  97.8894360  17.2764160  26.3933020
  97.4273730  17.4847180  27.2052960  97.4872470  16.4623510  26.0903690
 102.8898870  18.4973110  27.5229680 102.0392460  18.1978860  27.8438750
 102.7300660  18.7415120  26.6113500  99.9848580  19.9974860  29.6228470
 100.3101990  19.1638610  29.2830700 100.7728910  20.5203380  29.7706800
  96.7183370  14.0306340  15.6703530  96.0937550  14.0266210  16.3956840
  96.6313490  13.1637300  15.2739500  95.6400450  14.9542970  22.6487300
  95.9372780  15.8605800  22.5679320  96.1886010  14.4661750  22.0346870
  93.3938770  19.5329210  18.5178950  93.1679690  19.3166380  19.4225570
  92.6131300  19.9657670  18.1724920 100.6236530  19.5392580  17.1169600
 100.0245420  20.2628380  16.9333220 101.1716140  19.4769360  16.3346050
  95.8337980  20.4314790  29.1839220  95.7381580  19.4909520  29.0339620
  96.6769960  20.6529860  28.7887290  99.2301400  18.1756120  19.1472880
  99.6230970  18.4928320  18.3341570  99.5918250  17.2968000  19.2617400
  90.9648520  16.8428460  27.3373000  90.5711910  17.6903670  27.5445780
  90.2766920  16.2054830  27.5281640  97.5393570  16.9263430  30.4069740
  96.8491890  16.7335630  31.0415830  98.2825870  17.2098070  30.9394040
  88.2665570  14.7656920  21.3703080  87.9778620  15.3359780  22.0828060
  89.0111330  14.2861370  21.7334310  88.4535800  18.7077040  12.5805800
  88.3710470  19.6507800  12.7220790  88.1018860  18.5651950  11.7018150
  99.8156540  20.7661870  23.2423660  99.0837660  21.2748680  23.5913760
  99.4180880  19.9491850  22.9412440  96.2533930  17.4416070  21.6476150
  96.2569990  17.0006020  20.7980690  97.1485050  17.7633400  21.7547970
  92.1036310  17.3242560  20.6070360  91.7636360  17.8017790  21.3637410
  91.3413630  16.8707680  20.2471460  96.3154080  18.4428150  14.6382910
  96.4366900  18.4014630  15.5868730  95.9302590  19.3052300  14.4829640
 100.2782450  16.2195550  22.6546600 100.2955190  16.6704200  23.4988450
 100.0298030  15.3201190  22.8680040  95.3275580  20.7529290  14.0366210
  94.7592480  20.3047540  13.4102120  96.0364580  21.1122070  13.5031360
 103.7053200  13.6327730  28.4932980 104.0298970  12.9017390  29.0190960
 103.7409710  13.3141370  27.5913970  90.4044760  24.6541310  27.9132940
  90.0199550  24.0134980  28.5115900  90.7156950  25.3577430  28.4827670
  96.5541900  21.5017850  23.3941560  96.9212030  21.0276420  24.1402900
  96.3646960  22.3759420  23.7349900  89.4182390  16.2461540  19.5235030
  89.1329310  15.8817210  20.3613650  89.3561250  15.5142000  18.9098170
  94.3441270  20.5426490  25.7125770  94.0398340  21.4218470  25.9376130
  95.2987730  20.6026280  25.7483210  92.8723060  24.7487480  16.3092620
  92.0985320  24.2085100  16.1491340  93.6017690  24.2294090  15.9710380
 103.6311040  23.7452840  22.1019010 104.3510160  24.2408130  21.7115120
 103.4292860  23.0670730  21.4572880  99.0920980  15.1390800  16.2448400
  98.2785590  14.6403970  16.1693710  98.8982930  15.9789050  15.8284750
  99.0129840  23.8161900  27.9888010  98.9467150  22.8957570  27.7345600
  98.3834980  23.9137340  28.7032650 101.8069370  19.5110450  14.5410560
 102.6948990  19.8227680  14.3661900 101.7774460  18.6382700  14.1491140
  92.9160460  24.4167860  19.9471430  93.4339130  23.6136120  19.8928320
  92.4644480  24.3547000  20.7888260  97.8029960  25.6834140  15.2198730
  98.1445660  26.4276370  14.7242050  96.9742670  25.9965260  15.5823560
  90.4005000  21.3829230  26.8597130  90.0419940  22.0483080  27.4470470
  90.1059560  20.5512780  27.2309750  93.6018120  21.8413470  29.7436680
  93.3018260  21.9870650  28.8464500  94.3729360  21.2818760  29.6510070
  98.9446570  26.6382470  27.7391810  98.9591110  25.7063430  27.5210720
  98.2371670  26.7242230  28.3781580 104.0783640  20.8222290  14.0090420
 103.9947360  21.2536510  13.1586860 104.7977830  21.2820640  14.4417240
 105.1557780  23.2789810  27.0860390 104.4305970  23.8718590  26.8889780
 105.6833240  23.2713350  26.2873760 105.1070890  27.6764550  16.7372550
 104.4647050  27.0220170  17.0116270 104.7201550  28.0819640  15.9613220
 100.6857370  25.0049980  20.5844240 101.0381190  24.4078110  19.9245610
  99.8019700  24.6794210  20.7552490  96.7720650  25.7647670  17.9914650
  97.4591780  26.3116880  18.3722240  95.9853070  26.3088400  18.0264260
  88.9113050  21.3820490  13.4831730  89.7807900  21.6645290  13.7667650
  88.4203370  22.1956360  13.3680540  96.0747860  22.7693700  17.6040010
  96.5310640  23.5798950  17.8300200  95.7236070  22.4516840  18.4358500
  98.3780470  28.2800040  24.8332310  99.0222690  28.4859420  25.5105730
  98.7409910  27.5188440  24.3803160  91.9759640  13.1131350  18.0762530
  91.8474270  13.1049250  19.0247450  91.1521660  13.4514440  17.7253540
  99.6512550  26.2832390  23.5509760 100.2934780  25.5825550  23.6641930
 100.1761900  27.0630830  23.3706650 103.4968270  26.5681010  13.2748900
 103.2705850  25.8511450  13.8673540 103.1064470  26.3193450  12.4370650
 101.4250170  27.0827290  26.7545820 101.7606410  27.6693980  27.4323740
 100.5050510  26.9520000  26.9843610  89.2784300  30.5947870  14.0493360
  89.6381940  31.1937210  13.3950630  89.1376640  31.1407760  14.8228390
  88.9753570  14.8722470  27.5369230  88.2612090  15.0719390  28.1421840
  89.3948610  14.0962040  27.9084030 103.0784520  24.4852950  14.9363060
 102.7906220  24.9465640  15.7240940 103.8736690  24.0250720  15.2047280
  89.2626160  28.8602730  28.5235760  89.3717280  27.9197470  28.3831150
  88.6106720  29.1257480  27.8749490  97.2538750  27.1318620  29.9233880
  96.9335620  26.4127860  30.4679570  96.5797110  27.8073690  29.9969940
  95.2952920  27.9779070  14.8667030  95.2863020  28.7108760  14.2511540
  94.3751280  27.7310650  14.9593990  90.8959560  23.1993960  15.6113790
  90.2887510  23.9392860  15.6209090  91.3708910  23.2893320  14.7851990
 100.4692350  17.3644780  25.2870680 100.8373170  16.5439990  25.6150250
  99.6090550  17.4246670  25.7026330 103.8354380  16.3201720  16.0958240
 103.2067540  16.4247390  15.3816470 103.3406300  16.5398500  16.8852120
  98.2812520  28.0407310  13.5292220  98.3824500  27.8371300  12.5994200
  97.3814260  27.7865590  13.7340000  95.8038410  18.5987670  17.5116120
  95.0954560  19.0674010  17.9529730  96.0882890  17.9409680  18.1461310
  97.4294340  20.0184370  25.5108650  97.9279590  20.4930190  26.1760500
  97.5717290  19.0947890  25.7178680  99.8353840  15.3238330  18.9511910
  99.7121620  15.3424460  18.0021420 100.7838400  15.3717270  19.0710310
  96.9230630  30.5593630  18.2239890  97.1772130  30.5215020  17.3019260
  95.9743110  30.4326960  18.2168140  94.0073430  16.9072750  14.8866830
  94.8563960  17.3442900  14.8207020  93.6404700  17.2193010  15.7138890
 104.6361200  16.2352330  26.3537040 104.1334800  16.9757730  26.6930850
 105.4517860  16.6236330  26.0373830 102.9283210  21.4785510  19.7998400
 101.9873350  21.4935740  19.9746090 103.2427280  20.6921470  20.2458700
  92.9064850  23.1605110  13.3602360  93.6728120  23.0486470  13.9227790
  92.9839540  22.4643080  12.7079130  91.6011610  20.5930180  14.0435250
  91.6815200  19.6457690  14.1552650  92.4931360  20.9237060  14.1495910
 104.9308790  28.6494360  21.4752660 105.0556210  29.4725530  21.9476470
 105.7974350  28.4385090  21.1276810  92.4026320  30.7425570  21.1469790
  93.1388800  30.1941030  21.4178360  92.7867240  31.6081580  21.0075780
  89.2871800  26.8099140  17.0211300  88.3611580  27.0520280  17.0116710
  89.7528230  27.6373400  16.8996050  91.4084600  29.9271640  30.3355370
  92.2097330  30.2483690  30.7490770  90.8936420  29.5667220  31.0575280
  95.5128630  29.9155880  12.9695360  96.3057240  30.2044710  12.5177150
  94.9932980  29.4848050  12.2907840 100.2449230  26.0351510  30.2830780
  99.6387390  26.0583110  29.5426530  99.9403340  25.3034550  30.8198030
 101.6749600  29.7631800  28.8940190 102.6271350  29.6789820  28.8440430
 101.5277820  30.4273510  29.5673980 104.5658800  29.1426010  14.3932100
 104.2800310  28.7291150  13.5786280 104.3678350  30.0713720  14.2732620
  89.1282410  22.4145100  29.2791420  89.6321430  21.8352380  29.8507650
  88.3889830  22.6985330  29.8167790  96.0306030  25.1359290  12.8337710
  95.9256670  24.5211640  13.5599090  95.8630250  24.6125180  12.0500720
  96.1820350  23.8216090  28.8126940  95.4166020  24.3901090  28.7281610
  96.3636310  23.5292300  27.9195170  99.2708760  24.1979320  13.4379700
  98.7218860  24.6448620  14.0822440  99.8928020  23.6928570  13.9617370
 103.3243700  25.5521420  29.3701960 104.0653170  25.8897180  28.8669420
 102.5616380  25.7213480  28.8171730  91.1605490  20.5574690  30.1741490
  91.2010830  20.2588560  31.0826720  92.0150990  20.9582300  30.0149010
  94.9383880  23.1570240  15.3345000  95.3600300  22.9910110  16.1776390
  95.0634720  22.3470470  14.8400140  93.1011300  19.1366790  28.1415980
  92.5707760  18.6457740  27.5139320  93.7699370  19.5650990  27.6073910
  97.4511520  22.1807850  12.5822100  97.9717180  21.4656870  12.2163250
  98.0979920  22.8193720  12.8822610 101.9989360  23.6036250  27.9057170
 102.4130380  23.7581330  28.7547590 101.0640360  23.7291470  28.0682950
 102.4711530  20.9432410  29.9096320 103.0532300  20.1884730  29.8216800
 102.6473300  21.4739850  29.1327800  93.5883600  16.1029160  28.2213270
  93.4940470  15.4849910  27.4964140  93.0080990  16.8295450  27.9943180
  96.3545040  14.6602400  25.2540660  95.9062340  14.6826660  24.4086210
  95.7210240  14.2621420  25.8510960  96.7604590  23.5556730  25.8753100
  97.1792700  24.3989460  25.7029340  95.8413220  23.6928770  25.6459880
  99.0968490  21.2872910  27.2590940  99.2164700  20.6914050  27.9985780
  99.9562490  21.3242600  26.8392240 101.4356390  21.8410100  25.8353450
 100.9091610  22.3652720  25.2318590 101.7787730  22.4737490  26.4663180
  93.8342780  19.2303470  12.2803160  93.6331840  18.3670830  12.6416500
  93.6634830  19.1436830  11.3424760  94.6112010  29.8609740  26.9910830
  94.0733100  30.5855800  26.6719530  94.8645970  29.3840080  26.2008170
  95.8637260  17.8294260  28.5166760  96.4536950  17.5210110  29.2044580
  95.0457500  17.3574010  28.6726660 100.6830690  17.4460070  28.7499780
  99.9946210  16.7841610  28.6849770 101.4036710  16.9998340  29.1948240
 101.3131090  14.0411700  14.8090040 101.5933380  13.1979600  15.1649460
 100.5396820  14.2734810  15.3228790  92.6325580  16.3304090  12.2681040
  92.9351480  16.3371520  11.3600190  93.3720170  15.9801950  12.7648700
  97.4674220  31.0960950  27.2497480  97.3932920  31.9996090  27.5569850
  96.5653060  30.7772850  27.2219550  95.8510510  15.2738710  13.2537240
  95.5032510  14.5962700  12.6739690  96.0523280  14.8128220  14.0680630
  98.0159550  30.2619460  14.8723840  98.9110340  30.6004430  14.8942600
  98.0477180  29.5398870  14.2448120  91.6555710  25.6346510  13.1010840
  92.0930580  26.1776180  13.7568420  92.1403440  24.8093460  13.1107180
  88.8701510  28.4235540  20.5531100  89.2004520  27.5556600  20.3209740
  89.2992510  28.6294060  21.3836060  93.4663430  26.7544550  18.2133070
  93.1658970  26.6309520  19.1136980  93.3600920  25.8953140  17.8048800
  89.3591720  29.2906130  23.2912730  88.9222710  29.4706930  24.1236880
  89.9269400  30.0480750  23.1494450 104.9953900  28.7923130  27.5790040
 104.3955890  28.8515690  26.8353960 105.1247800  27.8528110  27.7086890
 106.2355350  26.5340950  12.9159750 105.4048310  26.6017600  13.3866980
 106.4127180  27.4245070  12.6126610 105.6911810  23.2788430  15.4193950
 106.4530720  23.8485080  15.5253640 105.7066180  22.7115630  16.1902260
  89.1916150  21.8026360  19.6501610  88.5364990  21.5338000  19.0061310
  90.0294100  21.6930840  19.2003590 106.6971780  24.1338530  20.2635880
 107.0680610  23.3505850  19.8571850 107.3373710  24.8227630  20.0853180
 103.6805540  25.5175110  25.6766200 102.8665380  25.9472270  25.9391990
 104.0879740  26.1293520  25.0635250 105.7430980  23.5722800  12.5766470
 106.0179820  24.4801680  12.4485690 105.5541720  23.5085330  13.5128460
 102.1406590  16.5967650  13.8720100 102.5591470  16.4098630  13.0316760
 101.8342650  15.7446700  14.1823030 105.6396320  21.5091790  17.5695900
 105.2639920  20.7419720  17.1377190 104.9099440  21.8914490  18.0570830
  90.2292080  22.1878930  24.1904950  90.5965120  22.1006330  25.0700970
  89.6602900  21.4245480  24.0911810 105.0295940  20.6563310  27.2035420
 104.7982030  20.4276060  26.3033370 105.2900490  21.5762860  27.1580310
  89.7808080  19.0988020  28.0963370  88.8864130  19.0654780  28.4357080
  90.3205630  19.2974810  28.8614620 103.4684010  15.8819740  29.9815120
 104.3454190  15.8903140  30.3649120 103.4804850  15.1450580  29.3707470
  88.4054230  19.0125290  15.5926940  87.5018310  19.2755490  15.4178600
  88.8894850  19.2836460  14.8126900 104.9147280  19.7349280  20.8703140
 105.4384760  19.2411930  20.2393310 105.5006700  19.8699640  21.6150710
 105.0937000  19.8189150  24.3922690 104.1439710  19.7852690  24.5067680
 105.2750010  20.7289260  24.1572460  90.9481440  18.0690830  13.5021320
  91.6573140  17.6474050  13.0168600  90.2321380  18.1366060  12.8704670
  90.5955600  14.1230160  12.5423970  91.3183730  14.6639100  12.8605190
  90.8680120  13.8493580  11.6665510 104.4047250  18.9922630  16.8095550
 104.9006370  18.7593500  17.5944430 104.2063320  18.1534470  16.3933190
  90.2847790  13.3736350  22.4446590  90.9323980  12.8233730  22.0041750
  90.7049630  13.6279500  23.2662400 105.8334410  17.6283580  19.3433230
 105.7233690  17.4739620  20.2815500 106.5942000  17.1004520  19.1008640
 104.1800130  13.5677710  25.8016230 104.8172350  14.1811850  26.1675420
 104.3275020  13.6038370  24.8565460 106.7224680  15.4591500  12.5839370
 107.6473990  15.3272680  12.3757660 106.7000470  15.5384320  13.5375820
 106.7963170  16.2302160  15.2096080 106.0014670  16.1647280  15.7388990
 107.0006450  17.1652800  15.1981430 103.7381590  30.2693710  19.2034470
 104.3340660  29.9478280  18.5268890 103.9959740  29.7965530  19.9947740
  90.0379790  13.5292020  25.1871910  89.6894610  13.9855840  25.9530090
  89.7067490  12.6349150  25.2694340  91.6444160  26.7011620  29.3525100
  91.6013790  26.3304530  30.2339560  91.7755170  27.6389190  29.4926920
  95.3450190  28.2571210  24.9534820  95.1041550  28.5245770  24.0665340
  96.2852830  28.4276940  25.0085680  97.5504610  14.7203900  28.7091330
  97.4893500  15.3125730  29.4586740  98.4904990  14.6129860  28.5641590
 100.1879170  14.3773960  28.3483620 100.8019580  14.6953250  27.6864700
 100.7328730  13.8922550  28.9679480 106.6054350  30.2765590  25.7545460
 106.1112630  30.6734460  25.0372590 105.9967640  29.6514800  26.1482740
  90.7100430  13.0568220  28.4622680  91.2583420  12.8756270  27.6988790
  90.7755740  12.2662330  28.9978990  91.4832190  29.6473870  26.4722880
  90.8892510  29.5158570  27.2112920  91.4756030  28.8112010  26.0064980
 100.9287210  12.9406100  24.6752910 100.0547050  13.2741210  24.4725840
 100.8197960  12.4679280  25.5004780 101.8359190  15.1476970  26.0594630
 101.5072550  14.3328730  25.6796360 102.7841490  15.1046780  25.9360320
 104.2893800  30.9189010  23.0332200 103.8296770  31.6704820  22.6590220
 103.6606260  30.1995480  22.9747000  91.1144420  27.0132250  25.4230920
  90.3878480  26.3937540  25.3556870  91.1753570  27.4072860  24.5529000
  94.7189520  29.2277250  22.2080330  95.2354540  28.6164610  21.6828590
  95.3686900  29.7306030  22.6991340  97.4585020  30.1185740  23.0349310
  97.7462830  29.8640040  22.1582320  97.9708240  29.5663100  23.6254880
  98.6762030  13.8575940  23.6145820  97.8933820  14.3321440  23.8942580
  98.3824960  12.9530770  23.5059000 103.2283100  14.5599040  21.6594910
 103.6691190  14.5044140  20.8116510 102.9590690  15.4757050  21.7305090
 105.0921670  14.1914280  19.6703730 105.0310070  13.2475500  19.5234750
 105.8713700  14.2994370  20.2157190  89.3974420  30.3306640  18.6327680
  89.2296460  29.6977320  19.3309570  88.5308930  30.5366040  18.2821870
  90.0202440  14.1623420  16.1359540  90.7781800  14.2752300  15.5623570
  89.5579610  14.9992620  16.0902970  96.5616250  16.2762690  19.1261850
  95.7490760  15.9019580  18.7857730  97.0657890  15.5207770  19.4283040
 101.0641230  12.9405140  20.3644920 101.6670600  13.5125350  20.8393440
 100.3234220  13.5044580  20.1418820 104.2075830  13.3426700  15.6385200
 104.4026460  14.2410150  15.9052630 103.4205700  13.1113780  16.1318150
  91.0037120  29.0239870  16.0777820  90.4784740  29.4047900  15.3739780
  90.9281700  29.6490640  16.7987530  92.3927590  14.6887470  14.6761510
  92.9220350  13.9017270  14.5469460  93.0255910  15.3678660  14.9097040
  94.5865430  14.4262610  17.7306900  93.9568170  13.7249920  17.8977030
  94.0470570  15.1866740  17.5140060  97.5257380  31.0401840  30.4017510
  98.4524690  30.8046110  30.4453470  97.5107810  31.8673840  29.9203540
 105.7602440  30.5827410  17.3991760 105.9354630  29.8965150  16.7552680
 105.0624010  31.1074460  17.0068430  94.7120990  13.7046590  30.1659390
  94.4305260  14.2080190  29.4020210  95.0940690  12.9068340  29.8001520
  93.6030090  30.9722250  14.9527070  94.3348910  30.6881530  14.4050960
  93.8623760  30.7335530  15.8426450  92.7644880  27.0886980  14.9573400
  92.1353760  27.5572080  15.5059230  92.8792710  26.2436200  15.3919590
 101.3136450  13.1200170  30.7439860 101.2001900  13.4394780  31.6391380
 102.1306190  13.5212680  30.4477140 104.0934940  30.2671700  30.2258550
 104.8860260  29.7720930  30.0184510 104.3868090  30.9461840  30.8334160
  98.3512640  22.9171660   2.9883870  97.5754740  22.4372100   3.2782440
  99.0025570  22.2377310   2.8140030  92.3678470  23.2291470   3.8659630
  91.5363350  22.9740180   4.2656140  92.9759450  23.3002240   4.6017550
 102.3720070  27.3231850   1.7683000 101.9101600  26.5519090   2.0970170
 103.1845620  27.3497920   2.2735450  92.3479730  27.2631560   4.0617650
  92.6507770  26.3729300   3.8827870  93.0923320  27.8201780   3.8339900
  88.7403430  20.7899010   3.5341720  89.3119540  20.0221210   3.5345360
  88.7404970  21.0887770   2.6248330  97.7921630  25.5928850   2.9954030
  97.7229910  24.6518790   2.8343160  98.5541490  25.6830260   3.5676600
  89.9828300  16.1983370   5.3210650  89.8031140  15.3009120   5.6013410
  89.5808380  16.7455240   5.9957600  98.8226800  18.3999230   3.2222960
  99.1991620  17.5271110   3.1096630  98.7246310  18.7357930   2.3313400
  90.6014970  18.6943870   3.9292990  91.2825080  18.9582240   4.5480390
  90.2863020  17.8544740   4.2631000  94.7939540  19.7411230   3.0165580
  95.3017760  20.2392200   3.6570600  95.3252780  18.9646430   2.8404940
 106.8950470  17.9116420   6.7194930 106.1902640  18.2998130   6.2010040
 107.1608390  18.6066710   7.3215860  93.0775640  14.3809790   7.2829000
  93.0794080  14.8982180   6.4774900  92.2479950  13.9039970   7.2598930
  94.3278490  24.0204970   5.4602500  93.9947870  24.6473890   6.1023570
  94.5045170  24.5466850   4.6804170 102.8412400  17.8350050   2.9278840
 102.1367970  18.1234940   3.5081950 103.2024560  18.6450160   2.5678400
  92.7590970  16.0919750   5.2899450  93.1007780  16.9361800   4.9953320
  91.8206780  16.2403490   5.4064790  93.5397590  25.9885770   7.2751680
  94.1571590  26.6636850   6.9936130  92.6790710  26.3973750   7.1839180
 104.4575180  27.4525180   5.1906320 103.7738700  28.1224290   5.1822990
 104.9969470  27.6505830   4.4251180 105.9099320  17.2804840   3.3188050
 104.9624230  17.3143820   3.4503480 106.2349310  18.0943790   3.7037410
 101.9933920  29.2969310   3.9051500 102.0061080  28.8931600   3.0373760
 101.4409140  30.0716600   3.8012930 101.3919360  24.1999150   5.2334110
 101.8088150  23.9859260   4.3987570 102.1159180  24.4571940   5.8042730
 105.3381460  22.5986370   5.3250350 104.5100090  22.6679460   4.8500480
 105.9331940  23.1840680   4.8566180 102.3023470  19.3855690   6.2705220
 101.8894650  20.2109400   6.5245210 101.5699420  18.8000730   6.0781580
  94.9037960  25.8583150   3.2963100  94.6066250  25.2528620   2.6170880
  95.8537780  25.8960460   3.1852460  93.1484880  18.9458800   4.9122930
  93.6999470  19.0554140   4.1376180  93.6628390  19.3196400   5.6278160
 102.9923570  29.4315020   6.9586200 102.5154130  30.2387210   6.7658810
 102.3085360  28.7793350   7.1112410  93.9956390  25.5964840   9.9470900
  93.0984920  25.8204810  10.1944300  94.0209260  25.7199780   8.9982300
  92.8227610  22.4678160   8.5228270  92.6835380  23.3400960   8.8915670
  91.9408970  22.1250970   8.3776210  94.6207960  28.4099860  10.7313420
  94.5923390  28.8142810   9.8641850  94.4572930  27.4810220  10.5685020
 106.5722780  29.1926960  12.0277590 107.0482500  29.6709850  12.7066670
 107.1929940  29.1244450  11.3023090  88.7746260  24.2375710   4.4399180
  88.8526680  24.3724480   3.4954900  89.3887940  23.5291600   4.6327300
 105.9756030  26.3839810   9.1877600 106.1019090  26.1451690   8.2694780
 106.0177410  25.5524350   9.6599680  99.8372770  30.0867810   7.7572410
 100.3517440  29.9975820   8.5594840  98.9941850  30.4327510   8.0500320
 105.8280040  18.4372270  10.1527340 105.2124310  18.9451940   9.6242800
 105.5076460  17.5370600  10.0953280  88.8305780  25.2789880   6.9793640
  88.9936820  24.8095240   6.1613010  89.2958230  24.7713440   7.6442480
  93.6024550  14.4095640   2.0154210  93.1592700  15.1905180   1.6838730
  94.1609540  14.7325530   2.7225150  97.8894360  17.2764160   7.6189530
  97.4273730  17.4847180   8.4309470  97.4872470  16.4623510   7.3160200
 102.8898870  18.4973110   8.7486190 102.0392460  18.1978860   9.0695260
 102.7300660  18.7415120   7.8370010  99.9848580  19.9974860  10.8484980
 100.3101990  19.1638610  10.5087210 100.7728910  20.5203380  10.9963310
  95.6400450  14.9542970   3.8743810  95.9372780  15.8605800   3.7935830
  96.1886010  14.4661750   3.2603380  95.8337980  20.4314790  10.4095730
  95.7381580  19.4909520  10.2596130  96.6769960  20.6529860  10.0143800
  90.9648520  16.8428460   8.5629510  90.5711910  17.6903670   8.7702290
  90.2766920  16.2054830   8.7538150  97.5393570  16.9263430  11.6326250
  96.8491890  16.7335630  12.2672340  98.2825870  17.2098070  12.1650550
  88.2665570  14.7656920   2.5959590  87.9778620  15.3359780   3.3084570
  89.0111330  14.2861370   2.9590820  99.8156540  20.7661870   4.4680170
  99.0837660  21.2748680   4.8170270  99.4180880  19.9491850   4.1668950
  96.2533930  17.4416070   2.8732660  96.2569990  17.0006020   2.0237200
  97.1485050  17.7633400   2.9804480  92.1036310  17.3242560   1.8326870
  91.7636360  17.8017790   2.5893920  91.3413630  16.8707680   1.4727970
 100.2782450  16.2195550   3.8803110 100.2955190  16.6704200   4.7244960
 100.0298030  15.3201190   4.0936550 103.7053200  13.6327730   9.7189490
 104.0298970  12.9017390  10.2447470 103.7409710  13.3141370   8.8170480
  90.4044760  24.6541310   9.1389450  90.0199550  24.0134980   9.7372410
  90.7156950  25.3577430   9.7084180  96.5541900  21.5017850   4.6198070
  96.9212030  21.0276420   5.3659410  96.3646960  22.3759420   4.9606410
  94.3441270  20.5426490   6.9382280  94.0398340  21.4218470   7.1632640
  95.2987730  20.6026280   6.9739720 103.6311040  23.7452840   3.3275520
 104.3510160  24.2408130   2.9371630 103.4292860  23.0670730   2.6829390
  99.0129840  23.8161900   9.2144520  98.9467150  22.8957570   8.9602110
  98.3834980  23.9137340   9.9289160  90.4005000  21.3829230   8.0853640
  90.0419940  22.0483080   8.6726980  90.1059560  20.5512780   8.4566260
  93.6018120  21.8413470  10.9693190  93.3018260  21.9870650  10.0721010
  94.3729360  21.2818760  10.8766580  98.9446570  26.6382470   8.9648320
  98.9591110  25.7063430   8.7467230  98.2371670  26.7242230   9.6038090
 105.1557780  23.2789810   8.3116900 104.4305970  23.8718590   8.1146290
 105.6833240  23.2713350   7.5130270  98.3780470  28.2800040   6.0588820
  99.0222690  28.4859420   6.7362240  98.7409910  27.5188440   5.6059670
  99.6512550  26.2832390   4.7766270 100.2934780  25.5825550   4.8898440
 100.1761900  27.0630830   4.5963160 101.4250170  27.0827290   7.9802330
 101.7606410  27.6693980   8.6580250 100.5050510  26.9520000   8.2100120
  88.9753570  14.8722470   8.7625740  88.2612090  15.0719390   9.3678350
  89.3948610  14.0962040   9.1340540  89.2626160  28.8602730   9.7492270
  89.3717280  27.9197470   9.6087660  88.6106720  29.1257480   9.1006000
  97.2538750  27.1318620  11.1490390  96.9335620  26.4127860  11.6936080
  96.5797110  27.8073690  11.2226450 100.4692350  17.3644780   6.5127190
 100.8373170  16.5439990   6.8406760  99.6090550  17.4246670   6.9282840
  97.4294340  20.0184370   6.7365160  97.9279590  20.4930190   7.4017010
  97.5717290  19.0947890   6.9435190 104.6361200  16.2352330   7.5793550
 104.1334800  16.9757730   7.9187360 105.4517860  16.6236330   7.2630340
 104.9308790  28.6494360   2.7009170 105.0556210  29.4725530   3.1732980
 105.7974350  28.4385090   2.3533320  92.4026320  30.7425570   2.3726300
  93.1388800  30.1941030   2.6434870  92.7867240  31.6081580   2.2332290
  91.4084600  29.9271640  11.5611880  92.2097330  30.2483690  11.9747280
  90.8936420  29.5667220  12.2831790 100.2449230  26.0351510  11.5087290
  99.6387390  26.0583110  10.7683040  99.9403340  25.3034550  12.0454540
 101.6749600  29.7631800  10.1196700 102.6271350  29.6789820  10.0696940
 101.5277820  30.4273510  10.7930490  89.1282410  22.4145100  10.5047930
  89.6321430  21.8352380  11.0764160  88.3889830  22.6985330  11.0424300
  96.1820350  23.8216090  10.0383450  95.4166020  24.3901090   9.9538120
  96.3636310  23.5292300   9.1451680 103.3243700  25.5521420  10.5958470
 104.0653170  25.8897180  10.0925930 102.5616380  25.7213480  10.0428240
  91.1605490  20.5574690  11.3998000  91.2010830  20.2588560  12.3083230
  92.0150990  20.9582300  11.2405520  93.1011300  19.1366790   9.3672490
  92.5707760  18.6457740   8.7395830  93.7699370  19.5650990   8.8330420
 101.9989360  23.6036250   9.1313680 102.4130380  23.7581330   9.9804100
 101.0640360  23.7291470   9.2939460 102.4711530  20.9432410  11.1352830
 103.0532300  20.1884730  11.0473310 102.6473300  21.4739850  10.3584310
  93.5883600  16.1029160   9.4469780  93.4940470  15.4849910   8.7220650
  93.0080990  16.8295450   9.2199690  96.3545040  14.6602400   6.4797170
  95.9062340  14.6826660   5.6342720  95.7210240  14.2621420   7.0767470
  96.7604590  23.5556730   7.1009610  97.1792700  24.3989460   6.9285850
  95.8413220  23.6928770   6.8716390  99.0968490  21.2872910   8.4847450
  99.2164700  20.6914050   9.2242290  99.9562490  21.3242600   8.0648750
 101.4356390  21.8410100   7.0609960 100.9091610  22.3652720   6.4575100
 101.7787730  22.4737490   7.6919690  94.6112010  29.8609740   8.2167340
  94.0733100  30.5855800   7.8976040  94.8645970  29.3840080   7.4264680
  95.8637260  17.8294260   9.7423270  96.4536950  17.5210110  10.4301090
  95.0457500  17.3574010   9.8983170 100.6830690  17.4460070   9.9756290
  99.9946210  16.7841610   9.9106280 101.4036710  16.9998340  10.4204750
  97.4674220  31.0960950   8.4753990  97.3932920  31.9996090   8.7826360
  96.5653060  30.7772850   8.4476060  88.8701510  28.4235540   1.7787610
  89.2004520  27.5556600   1.5466250  89.2992510  28.6294060   2.6092570
  89.3591720  29.2906130   4.5169240  88.9222710  29.4706930   5.3493390
  89.9269400  30.0480750   4.3750960 104.9953900  28.7923130   8.8046550
 104.3955890  28.8515690   8.0610470 105.1247800  27.8528110   8.9343400
 103.6805540  25.5175110   6.9022710 102.8665380  25.9472270   7.1648500
 104.0879740  26.1293520   6.2891760  90.2292080  22.1878930   5.4161460
  90.5965120  22.1006330   6.2957480  89.6602900  21.4245480   5.3168320
 105.0295940  20.6563310   8.4291930 104.7982030  20.4276060   7.5289880
 105.2900490  21.5762860   8.3836820  89.7808080  19.0988020   9.3219880
  88.8864130  19.0654780   9.6613590  90.3205630  19.2974810  10.0871130
 103.4684010  15.8819740  11.2071630 104.3454190  15.8903140  11.5905630
 103.4804850  15.1450580  10.5963980 104.9147280  19.7349280   2.0959650
 105.4384760  19.2411930   1.4649820 105.5006700  19.8699640   2.8407220
 105.0937000  19.8189150   5.6179200 104.1439710  19.7852690   5.7324190
 105.2750010  20.7289260   5.3828970  90.2847790  13.3736350   3.6703100
  90.9323980  12.8233730   3.2298260  90.7049630  13.6279500   4.4918910
 104.1800130  13.5677710   7.0272740 104.8172350  14.1811850   7.3931930
 104.3275020  13.6038370   6.0821970  90.0379790  13.5292020   6.4128420
  89.6894610  13.9855840   7.1786600  89.7067490  12.6349150   6.4950850
  91.6444160  26.7011620  10.5781610  91.6013790  26.3304530  11.4596070
  91.7755170  27.6389190  10.7183430  95.3450190  28.2571210   6.1791330
  95.1041550  28.5245770   5.2921850  96.2852830  28.4276940   6.2342190
  97.5504610  14.7203900   9.9347840  97.4893500  15.3125730  10.6843250
  98.4904990  14.6129860   9.7898100 100.1879170  14.3773960   9.5740130
 100.8019580  14.6953250   8.9121210 100.7328730  13.8922550  10.1935990
 106.6054350  30.2765590   6.9801970 106.1112630  30.6734460   6.2629100
 105.9967640  29.6514800   7.3739250  90.7100430  13.0568220   9.6879190
  91.2583420  12.8756270   8.9245300  90.7755740  12.2662330  10.2235500
  91.4832190  29.6473870   7.6979390  90.8892510  29.5158570   8.4369430
  91.4756030  28.8112010   7.2321490 100.9287210  12.9406100   5.9009420
 100.0547050  13.2741210   5.6982350 100.8197960  12.4679280   6.7261290
 101.8359190  15.1476970   7.2851140 101.5072550  14.3328730   6.9052870
 102.7841490  15.1046780   7.1616830 104.2893800  30.9189010   4.2588710
 103.8296770  31.6704820   3.8846730 103.6606260  30.1995480   4.2003510
  91.1144420  27.0132250   6.6487430  90.3878480  26.3937540   6.5813380
  91.1753570  27.4072860   5.7785510  94.7189520  29.2277250   3.4336840
  95.2354540  28.6164610   2.9085100  95.3686900  29.7306030   3.9247850
  97.4585020  30.1185740   4.2605820  97.7462830  29.8640040   3.3838830
  97.9708240  29.5663100   4.8511390  98.6762030  13.8575940   4.8402330
  97.8933820  14.3321440   5.1199090  98.3824960  12.9530770   4.7315510
 103.2283100  14.5599040   2.8851420 103.6691190  14.5044140   2.0373020
 102.9590690  15.4757050   2.9561600  97.5257380  31.0401840  11.6274020
  98.4524690  30.8046110  11.6709980  97.5107810  31.8673840  11.1460050
  94.7120990  13.7046590  11.3915900  94.4305260  14.2080190  10.6276720
  95.0940690  12.9068340  11.0258030 101.3136450  13.1200170  11.9696370
 101.2001900  13.4394780  12.8647890 102.1306190  13.5212680  11.6733650
 104.0934940  30.2671700  11.4515060 104.8860260  29.7720930  11.2441020
 104.3868090  30.9461840  12.0590670 100.2194600   2.3649150  57.4305070
 100.1388650   1.4503760  57.1596780  99.8059020   2.8616220  56.7244780
  98.3512640   4.1428170  59.3114340  97.5754740   3.6628610  59.6012910
  99.0025570   3.4633820  59.1370500 102.3720070   8.5488360  58.0913470
 101.9101600   7.7775600  58.4200640 103.1845620   8.5754430  58.5965920
  88.7403430   2.0155520  59.8572190  89.3119540   1.2477720  59.8575830
  88.7404970   2.3144280  58.9478800  98.5983380  10.8346370  57.7117460
  97.9794820  11.2903870  57.1411900  99.4535160  10.9897830  57.3107160
  97.7921630   6.8185360  59.3184500  97.7229910   5.8775300  59.1573630
  98.5541490   6.9086770  59.8907070  99.4646730   5.7185610  55.1049370
  98.8464000   6.1835060  54.5412090  99.9769980   6.4113090  55.5218880
  88.8329930   6.4042140  52.4789000  88.4557910   6.8929240  51.7473900
  89.0903000   7.0767420  53.1095530 101.9933920  10.5225820  60.2281970
 102.0061080  10.1188110  59.3604230 101.4409140  11.2973110  60.1243400
 103.2879340   7.2442040  55.3172140 103.1775670   6.3016370  55.4421560
 103.2847590   7.6057680  56.2034900  98.8299620   2.8707360  54.6734630
  97.9028900   2.8044740  54.9023100  98.9824440   3.8087490  54.5589870
 102.8596910   4.4327660  55.1769880 102.2409330   4.0947210  54.5296180
 102.8421360   3.7887420  55.8849070  94.4356260   3.3972100  57.4554360
  94.0313260   2.6849350  56.9600260  94.5219380   3.0525340  58.3442400
  94.9037960   7.0839660  59.6193570  94.6066250   6.4785130  58.9401350
  95.8537780   7.1216970  59.5082930 101.0361610   3.6714470  52.1842630
 101.4754890   2.8336900  52.0380450 101.7490030   4.3043870  52.2706770
  99.1456990   8.6110540  56.1523870  99.5852900   9.3534870  55.7379260
  99.0843880   8.8537110  57.0762830  91.1360890   2.2917080  54.9561010
  91.0158490   3.0179170  54.3442280  90.8261780   1.5219990  54.4788920
  90.0193890   7.1632410  57.1735830  89.6121970   7.3047000  56.3189430
  90.9106900   6.8792570  56.9707040 101.8127170  11.5979660  53.5086880
 101.6528310  11.3082600  54.4068710 101.6473880  10.8219790  52.9732110
  94.2915550  11.3778190  55.2858500  94.1158030  10.4613730  55.0726300
  93.4371290  11.7365480  55.5256300 101.5153300   9.1067220  52.0684880
 100.8218460   9.1044510  51.4087160 102.2576160   8.6826540  51.6379050
 101.0803230  10.7329930  56.1433370 101.5360180   9.9519310  56.4571990
 101.4195750  11.4436750  56.6874550  95.3275580   1.9785800  51.5853190
  94.7592480   1.5304050  50.9589100  96.0364580   2.3378580  51.0518340
  92.8723060   5.9743990  53.8579600  92.0985320   5.4341610  53.6978320
  93.6017690   5.4550600  53.5197360 103.6311040   4.9709350  59.6505990
 104.3510160   5.4664640  59.2602100 103.4292860   4.2927240  59.0059860
  92.9160460   5.6424370  57.4958410  93.4339130   4.8392630  57.4415300
  92.4644480   5.5803510  58.3375240  97.8029960   6.9090650  52.7685710
  98.1445660   7.6532880  52.2729030  96.9742670   7.2221770  53.1310540
 104.0783640   2.0478800  51.5577400 103.9947360   2.4793020  50.7073840
 104.7977830   2.5077150  51.9904220 105.1070890   8.9021060  54.2859530
 104.4647050   8.2476680  54.5603250 104.7201550   9.3076150  53.5100200
 100.6857370   6.2306490  58.1331220 101.0381190   5.6334620  57.4732590
  99.8019700   5.9050720  58.3039470  96.7720650   6.9904180  55.5401630
  97.4591780   7.5373390  55.9209220  95.9853070   7.5344910  55.5751240
  88.9113050   2.6077000  51.0318710  89.7807900   2.8901800  51.3154630
  88.4203370   3.4212870  50.9167520  96.0747860   3.9950210  55.1526990
  96.5310640   4.8055460  55.3787180  95.7236070   3.6773350  55.9845480
 103.4968270   7.7937520  50.8235880 103.2705850   7.0767960  51.4160520
 103.1064470   7.5449960  49.9857630  89.2784300  11.8204380  51.5980340
  89.6381940  12.4193720  50.9437610  89.1376640  12.3664270  52.3715370
 103.0784520   5.7109460  52.4850040 102.7906220   6.1722150  53.2727920
 103.8736690   5.2507230  52.7534260  95.2952920   9.2035580  52.4154010
  95.2863020   9.9365270  51.7998520  94.3751280   8.9567160  52.5080970
  90.8959560   4.4250470  53.1600770  90.2887510   5.1649370  53.1696070
  91.3708910   4.5149830  52.3338970  98.2812520   9.2663820  51.0779200
  98.3824500   9.0627810  50.1481180  97.3814260   9.0122100  51.2826980
  96.9230630  11.7850140  55.7726870  97.1772130  11.7471530  54.8506240
  95.9743110  11.6583470  55.7655120 102.9283210   2.7042020  57.3485380
 101.9873350   2.7192250  57.5233070 103.2427280   1.9177980  57.7945680
  92.9064850   4.3861620  50.9089340  93.6728120   4.2742980  51.4714770
  92.9839540   3.6899590  50.2566110 104.9308790   9.8750870  59.0239640
 105.0556210  10.6982040  59.4963450 105.7974350   9.6641600  58.6763790
  92.4026320  11.9682080  58.6956770  93.1388800  11.4197540  58.9665340
  92.7867240  12.8338090  58.5562760  89.2871800   8.0355650  54.5698280
  88.3611580   8.2776790  54.5603690  89.7528230   8.8629910  54.4483030
  95.5128630  11.1412390  50.5182340  96.3057240  11.4301220  50.0664130
  94.9932980  10.7104560  49.8394820 104.5658800  10.3682520  51.9419080
 104.2800310   9.9547660  51.1273260 104.3678350  11.2970230  51.8219600
  96.0306030   6.3615800  50.3824690  95.9256670   5.7468150  51.1086070
  95.8630250   5.8381690  49.5987700  99.2708760   5.4235830  50.9866680
  98.7218860   5.8705130  51.6309420  99.8928020   4.9185080  51.5104350
  94.9383880   4.3826750  52.8831980  95.3600300   4.2166620  53.7263370
  95.0634720   3.5726980  52.3887120  97.4511520   3.4064360  50.1309080
  97.9717180   2.6913380  49.7650230  98.0979920   4.0450230  50.4309590
  98.0159550  11.4875970  52.4210820  98.9110340  11.8260940  52.4429580
  98.0477180  10.7655380  51.7935100  91.6555710   6.8603020  50.6497820
  92.0930580   7.4032690  51.3055400  92.1403440   6.0349970  50.6594160
  88.8701510   9.6492050  58.1018080  89.2004520   8.7813110  57.8696720
  89.2992510   9.8550570  58.9323040  93.4663430   7.9801060  55.7620050
  93.1658970   7.8566030  56.6623960  93.3600920   7.1209650  55.3535780
 106.2355350   7.7597460  50.4646730 105.4048310   7.8274110  50.9353960
 106.4127180   8.6501580  50.1613590 105.6911810   4.5044940  52.9680930
 106.4530720   5.0741590  53.0740620 105.7066180   3.9372140  53.7389240
  89.1916150   3.0282870  57.1988590  88.5364990   2.7594510  56.5548290
  90.0294100   2.9187350  56.7490570 106.6971780   5.3595040  57.8122860
 107.0680610   4.5762360  57.4058830 107.3373710   6.0484140  57.6340160
 105.7430980   4.7979310  50.1253450 106.0179820   5.7058190  49.9972670
 105.5541720   4.7341840  51.0615440 105.6396320   2.7348300  55.1182880
 105.2639920   1.9676230  54.6864170 104.9099440   3.1171000  55.6057810
 103.7381590  11.4950220  56.7521450 104.3340660  11.1734790  56.0755870
 103.9959740  11.0222040  57.5434720  94.7189520  10.4533760  59.7567310
  95.2354540   9.8421120  59.2315570  95.3686900  10.9562540  60.2478320
  89.3974420  11.5563150  56.1814660  89.2296460  10.9233830  56.8796550
  88.5308930  11.7622550  55.8308850  91.0037120  10.2496380  53.6264800
  90.4784740  10.6304410  52.9226760  90.9281700  10.8747150  54.3474510
 105.7602440  11.8083920  54.9478740 105.9354630  11.1221660  54.3039660
 105.0624010  12.3330970  54.5555410  93.6030090  12.1978760  52.5014050
  94.3348910  11.9138040  51.9537940  93.8623760  11.9592040  53.3913430
  92.7644880   8.3143490  52.5060380  92.1353760   8.7828590  53.0546210
  92.8792710   7.4692710  52.9406570 100.2194600   2.3649150  38.6561580
 100.1388650   1.4503760  38.3853290  99.8059020   2.8616220  37.9501290
  98.3512640   4.1428170  40.5370850  97.5754740   3.6628610  40.8269420
  99.0025570   3.4633820  40.3627010  92.3678470   4.4547980  41.4146610
  91.5363350   4.1996690  41.8143120  92.9759450   4.5258750  42.1504530
 102.3720070   8.5488360  39.3169980 101.9101600   7.7775600  39.6457150
 103.1845620   8.5754430  39.8222430  92.3479730   8.4888070  41.6104630
  92.6507770   7.5985810  41.4314850  93.0923320   9.0458290  41.3826880
  88.7403430   2.0155520  41.0828700  89.3119540   1.2477720  41.0832340
  88.7404970   2.3144280  40.1735310  97.7921630   6.8185360  40.5441010
  97.7229910   5.8775300  40.3830140  98.5541490   6.9086770  41.1163580
  99.4646730   5.7185610  36.3305880  98.8464000   6.1835060  35.7668600
  99.9769980   6.4113090  36.7475390  94.3278490   5.2461480  43.0089480
  93.9947870   5.8730400  43.6510550  94.5045170   5.7723360  42.2291150
  93.5397590   7.2142280  44.8238660  94.1571590   7.8893360  44.5423110
  92.6790710   7.6230260  44.7326160  88.8329930   6.4042140  33.7045510
  88.4557910   6.8929240  32.9730410  89.0903000   7.0767420  34.3352040
 104.4575180   8.6781690  42.7393300 103.7738700   9.3480800  42.7309970
 104.9969470   8.8762340  41.9738160 101.9933920  10.5225820  41.4538480
 102.0061080  10.1188110  40.5860740 101.4409140  11.2973110  41.3499910
 103.2879340   7.2442040  36.5428650 103.1775670   6.3016370  36.6678070
 103.2847590   7.6057680  37.4291410 101.3919360   5.4255660  42.7821090
 101.8088150   5.2115770  41.9474550 102.1159180   5.6828450  43.3529710
  98.8299620   2.8707360  35.8991140  97.9028900   2.8044740  36.1279610
  98.9824440   3.8087490  35.7846380 105.3381460   3.8242880  42.8737330
 104.5100090   3.8935970  42.3987460 105.9331940   4.4097190  42.4053160
 102.8596910   4.4327660  36.4026390 102.2409330   4.0947210  35.7552690
 102.8421360   3.7887420  37.1105580  94.4356260   3.3972100  38.6810870
  94.0313260   2.6849350  38.1856770  94.5219380   3.0525340  39.5698910
  94.9037960   7.0839660  40.8450080  94.6066250   6.4785130  40.1657860
  95.8537780   7.1216970  40.7339440 102.9923570  10.6571530  44.5073180
 102.5154130  11.4643720  44.3145790 102.3085360  10.0049860  44.6599390
  93.9956390   6.8221350  47.4957880  93.0984920   7.0461320  47.7431280
  94.0209260   6.9456290  46.5469280 101.0361610   3.6714470  33.4099140
 101.4754890   2.8336900  33.2636960 101.7490030   4.3043870  33.4963280
  92.8227610   3.6934670  46.0715250  92.6835380   4.5657470  46.4402650
  91.9408970   3.3507480  45.9263190  99.1456990   8.6110540  37.3780380
  99.5852900   9.3534870  36.9635770  99.0843880   8.8537110  38.3019340
  94.6207960   9.6356370  48.2800400  94.5923390  10.0399320  47.4128830
  94.4572930   8.7066730  48.1172000  91.1360890   2.2917080  36.1817520
  91.0158490   3.0179170  35.5698790  90.8261780   1.5219990  35.7045430
 106.5722780  10.4183470  49.5764570 107.0482500  10.8966360  50.2553650
 107.1929940  10.3500960  48.8510070  88.7746260   5.4632220  41.9886160
  88.8526680   5.5980990  41.0441880  89.3887940   4.7548110  42.1814280
  90.0193890   7.1632410  38.3992340  89.6121970   7.3047000  37.5445940
  90.9106900   6.8792570  38.1963550 105.9756030   7.6096320  46.7364580
 106.1019090   7.3708200  45.8181760 106.0177410   6.7780860  47.2086660
  99.8372770  11.3124320  45.3059390 100.3517440  11.2232330  46.1081820
  98.9941850  11.6584020  45.5987300 101.8127170  11.5979660  34.7343390
 101.6528310  11.3082600  35.6325220 101.6473880  10.8219790  34.1988620
 101.5153300   9.1067220  33.2941390 100.8218460   9.1044510  32.6343670
 102.2576160   8.6826540  32.8635560 101.0803230  10.7329930  37.3689880
 101.5360180   9.9519310  37.6828500 101.4195750  11.4436750  37.9131060
  88.8305780   6.5046390  44.5280620  88.9936820   6.0351750  43.7099990
  89.2958230   5.9969950  45.1929460  95.3275580   1.9785800  32.8109700
  94.7592480   1.5304050  32.1845610  96.0364580   2.3378580  32.2774850
  90.4044760   5.8797820  46.6876430  90.0199550   5.2391490  47.2859390
  90.7156950   6.5833940  47.2571160  96.5541900   2.7274360  42.1685050
  96.9212030   2.2532930  42.9146390  96.3646960   3.6015930  42.5093390
  94.3441270   1.7683000  44.4869260  94.0398340   2.6474980  44.7119620
  95.2987730   1.8282790  44.5226700  92.8723060   5.9743990  35.0836110
  92.0985320   5.4341610  34.9234830  93.6017690   5.4550600  34.7453870
 103.6311040   4.9709350  40.8762500 104.3510160   5.4664640  40.4858610
 103.4292860   4.2927240  40.2316370  99.0129840   5.0418410  46.7631500
  98.9467150   4.1214080  46.5089090  98.3834980   5.1393850  47.4776140
  92.9160460   5.6424370  38.7214920  93.4339130   4.8392630  38.6671810
  92.4644480   5.5803510  39.5631750  97.8029960   6.9090650  33.9942220
  98.1445660   7.6532880  33.4985540  96.9742670   7.2221770  34.3567050
  90.4005000   2.6085740  45.6340620  90.0419940   3.2739590  46.2213960
  90.1059560   1.7769290  46.0053240  93.6018120   3.0669980  48.5180170
  93.3018260   3.2127160  47.6207990  94.3729360   2.5075270  48.4253560
  98.9446570   7.8638980  46.5135300  98.9591110   6.9319940  46.2954210
  98.2371670   7.9498740  47.1525070 104.0783640   2.0478800  32.7833910
 103.9947360   2.4793020  31.9330350 104.7977830   2.5077150  33.2160730
 105.1557780   4.5046320  45.8603880 104.4305970   5.0975100  45.6633270
 105.6833240   4.4969860  45.0617250 105.1070890   8.9021060  35.5116040
 104.4647050   8.2476680  35.7859760 104.7201550   9.3076150  34.7356710
 100.6857370   6.2306490  39.3587730 101.0381190   5.6334620  38.6989100
  99.8019700   5.9050720  39.5295980  96.7720650   6.9904180  36.7658140
  97.4591780   7.5373390  37.1465730  95.9853070   7.5344910  36.8007750
  88.9113050   2.6077000  32.2575220  89.7807900   2.8901800  32.5411140
  88.4203370   3.4212870  32.1424030  96.0747860   3.9950210  36.3783500
  96.5310640   4.8055460  36.6043690  95.7236070   3.6773350  37.2101990
  98.3780470   9.5056550  43.6075800  99.0222690   9.7115930  44.2849220
  98.7409910   8.7444950  43.1546650  99.6512550   7.5088900  42.3253250
 100.2934780   6.8082060  42.4385420 100.1761900   8.2887340  42.1450140
 103.4968270   7.7937520  32.0492390 103.2705850   7.0767960  32.6417030
 103.1064470   7.5449960  31.2114140 101.4250170   8.3083800  45.5289310
 101.7606410   8.8950490  46.2067230 100.5050510   8.1776510  45.7587100
  89.2784300  11.8204380  32.8236850  89.6381940  12.4193720  32.1694120
  89.1376640  12.3664270  33.5971880 103.0784520   5.7109460  33.7106550
 102.7906220   6.1722150  34.4984430 103.8736690   5.2507230  33.9790770
  89.2626160  10.0859240  47.2979250  89.3717280   9.1453980  47.1574640
  88.6106720  10.3513990  46.6492980  97.2538750   8.3575130  48.6977370
  96.9335620   7.6384370  49.2423060  96.5797110   9.0330200  48.7713430
  95.2952920   9.2035580  33.6410520  95.2863020   9.9365270  33.0255030
  94.3751280   8.9567160  33.7337480  90.8959560   4.4250470  34.3857280
  90.2887510   5.1649370  34.3952580  91.3708910   4.5149830  33.5595480
  98.2812520   9.2663820  32.3035710  98.3824500   9.0627810  31.3737690
  97.3814260   9.0122100  32.5083490 102.9283210   2.7042020  38.5741890
 101.9873350   2.7192250  38.7489580 103.2427280   1.9177980  39.0202190
  92.9064850   4.3861620  32.1345850  93.6728120   4.2742980  32.6971280
  92.9839540   3.6899590  31.4822620 104.9308790   9.8750870  40.2496150
 105.0556210  10.6982040  40.7219960 105.7974350   9.6641600  39.9020300
  92.4026320  11.9682080  39.9213280  93.1388800  11.4197540  40.1921850
  92.7867240  12.8338090  39.7819270  89.2871800   8.0355650  35.7954790
  88.3611580   8.2776790  35.7860200  89.7528230   8.8629910  35.6739540
  91.4084600  11.1528150  49.1098860  92.2097330  11.4740200  49.5234260
  90.8936420  10.7923730  49.8318770  95.5128630  11.1412390  31.7438850
  96.3057240  11.4301220  31.2920640  94.9932980  10.7104560  31.0651330
 100.2449230   7.2608020  49.0574270  99.6387390   7.2839620  48.3170020
  99.9403340   6.5291060  49.5941520 101.6749600  10.9888310  47.6683680
 102.6271350  10.9046330  47.6183920 101.5277820  11.6530020  48.3417470
 104.5658800  10.3682520  33.1675590 104.2800310   9.9547660  32.3529770
 104.3678350  11.2970230  33.0476110  89.1282410   3.6401610  48.0534910
  89.6321430   3.0608890  48.6251140  88.3889830   3.9241840  48.5911280
  96.0306030   6.3615800  31.6081200  95.9256670   5.7468150  32.3342580
  95.8630250   5.8381690  30.8244210  96.1820350   5.0472600  47.5870430
  95.4166020   5.6157600  47.5025100  96.3636310   4.7548810  46.6938660
  99.2708760   5.4235830  32.2123190  98.7218860   5.8705130  32.8565930
  99.8928020   4.9185080  32.7360860 103.3243700   6.7777930  48.1445450
 104.0653170   7.1153690  47.6412910 102.5616380   6.9469990  47.5915220
  91.1605490   1.7831200  48.9484980  91.2010830   1.4845070  49.8570210
  92.0150990   2.1838810  48.7892500  94.9383880   4.3826750  34.1088490
  95.3600300   4.2166620  34.9519880  95.0634720   3.5726980  33.6143630
  97.4511520   3.4064360  31.3565590  97.9717180   2.6913380  30.9906740
  98.0979920   4.0450230  31.6566100 101.9989360   4.8292760  46.6800660
 102.4130380   4.9837840  47.5291080 101.0640360   4.9547980  46.8426440
 102.4711530   2.1688920  48.6839810 103.0532300   1.4141240  48.5960290
 102.6473300   2.6996360  47.9071290  96.7604590   4.7813240  44.6496590
  97.1792700   5.6245970  44.4772830  95.8413220   4.9185280  44.4203370
  99.0968490   2.5129420  46.0334430  99.2164700   1.9170560  46.7729270
  99.9562490   2.5499110  45.6135730 101.4356390   3.0666610  44.6096940
 100.9091610   3.5909230  44.0062080 101.7787730   3.6994000  45.2406670
  94.6112010  11.0866250  45.7654320  94.0733100  11.8112310  45.4463020
  94.8645970  10.6096590  44.9751660  97.4674220  12.3217460  46.0240970
  97.3932920  13.2252600  46.3313340  96.5653060  12.0029360  45.9963040
  91.6555710   6.8603020  31.8754330  92.0930580   7.4032690  32.5311910
  92.1403440   6.0349970  31.8850670  88.8701510   9.6492050  39.3274590
  89.2004520   8.7813110  39.0953230  89.2992510   9.8550570  40.1579550
  93.4663430   7.9801060  36.9876560  93.1658970   7.8566030  37.8880470
  93.3600920   7.1209650  36.5792290  89.3591720  10.5162640  42.0656220
  88.9222710  10.6963440  42.8980370  89.9269400  11.2737260  41.9237940
 104.9953900  10.0179640  46.3533530 104.3955890  10.0772200  45.6097450
 105.1247800   9.0784620  46.4830380 106.2355350   7.7597460  31.6903240
 105.4048310   7.8274110  32.1610470 106.4127180   8.6501580  31.3870100
 105.6911810   4.5044940  34.1937440 106.4530720   5.0741590  34.2997130
 105.7066180   3.9372140  34.9645750  89.1916150   3.0282870  38.4245100
  88.5364990   2.7594510  37.7804800  90.0294100   2.9187350  37.9747080
 106.6971780   5.3595040  39.0379370 107.0680610   4.5762360  38.6315340
 107.3373710   6.0484140  38.8596670 103.6805540   6.7431620  44.4509690
 102.8665380   7.1728780  44.7135480 104.0879740   7.3550030  43.8378740
 105.7430980   4.7979310  31.3509960 106.0179820   5.7058190  31.2229180
 105.5541720   4.7341840  32.2871950 105.6396320   2.7348300  36.3439390
 105.2639920   1.9676230  35.9120680 104.9099440   3.1171000  36.8314320
  90.2292080   3.4135440  42.9648440  90.5965120   3.3262840  43.8444460
  89.6602900   2.6501990  42.8655300 105.0295940   1.8819820  45.9778910
 104.7982030   1.6532570  45.0776860 105.2900490   2.8019370  45.9323800
 103.7381590  11.4950220  37.9777960 104.3340660  11.1734790  37.3012380
 103.9959740  11.0222040  38.7691230  91.6444160   7.9268130  48.1268590
  91.6013790   7.5561040  49.0083050  91.7755170   8.8645700  48.2670410
  95.3450190   9.4827720  43.7278310  95.1041550   9.7502280  42.8408830
  96.2852830   9.6533450  43.7829170 106.6054350  11.5022100  44.5288950
 106.1112630  11.8990970  43.8116080 105.9967640  10.8771310  44.9226230
  91.4832190  10.8730380  45.2466370  90.8892510  10.7415080  45.9856410
  91.4756030  10.0368520  44.7808470 104.2893800  12.1445520  41.8075690
 103.8296770  12.8961330  41.4333710 103.6606260  11.4251990  41.7490490
  91.1144420   8.2388760  44.1974410  90.3878480   7.6194050  44.1300360
  91.1753570   8.6329370  43.3272490  94.7189520  10.4533760  40.9823820
  95.2354540   9.8421120  40.4572080  95.3686900  10.9562540  41.4734830
  97.4585020  11.3442250  41.8092800  97.7462830  11.0896550  40.9325810
  97.9708240  10.7919610  42.3998370  89.3974420  11.5563150  37.4071170
  89.2296460  10.9233830  38.1053060  88.5308930  11.7622550  37.0565360
  91.0037120  10.2496380  34.8521310  90.4784740  10.6304410  34.1483270
  90.9281700  10.8747150  35.5731020  97.5257380  12.2658350  49.1761000
  98.4524690  12.0302620  49.2196960  97.5107810  13.0930350  48.6947030
 105.7602440  11.8083920  36.1735250 105.9354630  11.1221660  35.5296170
 105.0624010  12.3330970  35.7811920  92.7644880   8.3143490  33.7316890
  92.1353760   8.7828590  34.2802720  92.8792710   7.4692710  34.1663080
 104.0934940  11.4928210  49.0002040 104.8860260  10.9977440  48.7928000
 104.3868090  12.1718350  49.6077650 100.2194600   2.3649150  19.8818090
 100.1388650   1.4503760  19.6109800  99.8059020   2.8616220  19.1757800
  98.3512640   4.1428170  21.7627360  97.5754740   3.6628610  22.0525930
  99.0025570   3.4633820  21.5883520  92.3678470   4.4547980  22.6403120
  91.5363350   4.1996690  23.0399630  92.9759450   4.5258750  23.3761040
 102.3720070   8.5488360  20.5426490 101.9101600   7.7775600  20.8713660
 103.1845620   8.5754430  21.0478940  92.3479730   8.4888070  22.8361140
  92.6507770   7.5985810  22.6571360  93.0923320   9.0458290  22.6083390
  88.7403430   2.0155520  22.3085210  89.3119540   1.2477720  22.3088850
  88.7404970   2.3144280  21.3991820  98.5983380  10.8346370  20.1630480
  97.9794820  11.2903870  19.5924920  99.4535160  10.9897830  19.7620180
  97.7921630   6.8185360  21.7697520  97.7229910   5.8775300  21.6086650
  98.5541490   6.9086770  22.3420090  99.4646730   5.7185610  17.5562390
  98.8464000   6.1835060  16.9925110  99.9769980   6.4113090  17.9731900
  94.3278490   5.2461480  24.2345990  93.9947870   5.8730400  24.8767060
  94.5045170   5.7723360  23.4547660  93.5397590   7.2142280  26.0495170
  94.1571590   7.8893360  25.7679620  92.6790710   7.6230260  25.9582670
  88.8329930   6.4042140  14.9302020  88.4557910   6.8929240  14.1986920
  89.0903000   7.0767420  15.5608550 104.4575180   8.6781690  23.9649810
 103.7738700   9.3480800  23.9566480 104.9969470   8.8762340  23.1994670
 101.9933920  10.5225820  22.6794990 102.0061080  10.1188110  21.8117250
 101.4409140  11.2973110  22.5756420 103.2879340   7.2442040  17.7685160
 103.1775670   6.3016370  17.8934580 103.2847590   7.6057680  18.6547920
 101.3919360   5.4255660  24.0077600 101.8088150   5.2115770  23.1731060
 102.1159180   5.6828450  24.5786220  98.8299620   2.8707360  17.1247650
  97.9028900   2.8044740  17.3536120  98.9824440   3.8087490  17.0102890
 105.3381460   3.8242880  24.0993840 104.5100090   3.8935970  23.6243970
 105.9331940   4.4097190  23.6309670 102.8596910   4.4327660  17.6282900
 102.2409330   4.0947210  16.9809200 102.8421360   3.7887420  18.3362090
  94.4356260   3.3972100  19.9067380  94.0313260   2.6849350  19.4113280
  94.5219380   3.0525340  20.7955420  94.9037960   7.0839660  22.0706590
  94.6066250   6.4785130  21.3914370  95.8537780   7.1216970  21.9595950
 102.9923570  10.6571530  25.7329690 102.5154130  11.4643720  25.5402300
 102.3085360  10.0049860  25.8855900  93.9956390   6.8221350  28.7214390
  93.0984920   7.0461320  28.9687790  94.0209260   6.9456290  27.7725790
 101.0361610   3.6714470  14.6355650 101.4754890   2.8336900  14.4893470
 101.7490030   4.3043870  14.7219790  92.8227610   3.6934670  27.2971760
  92.6835380   4.5657470  27.6659160  91.9408970   3.3507480  27.1519700
  99.1456990   8.6110540  18.6036890  99.5852900   9.3534870  18.1892280
  99.0843880   8.8537110  19.5275850  94.6207960   9.6356370  29.5056910
  94.5923390  10.0399320  28.6385340  94.4572930   8.7066730  29.3428510
  91.1360890   2.2917080  17.4074030  91.0158490   3.0179170  16.7955300
  90.8261780   1.5219990  16.9301940 106.5722780  10.4183470  30.8021080
 107.0482500  10.8966360  31.4810160 107.1929940  10.3500960  30.0766580
  88.7746260   5.4632220  23.2142670  88.8526680   5.5980990  22.2698390
  89.3887940   4.7548110  23.4070790  90.0193890   7.1632410  19.6248850
  89.6121970   7.3047000  18.7702450  90.9106900   6.8792570  19.4220060
 105.9756030   7.6096320  27.9621090 106.1019090   7.3708200  27.0438270
 106.0177410   6.7780860  28.4343170  99.8372770  11.3124320  26.5315900
 100.3517440  11.2232330  27.3338330  98.9941850  11.6584020  26.8243810
 101.8127170  11.5979660  15.9599900 101.6528310  11.3082600  16.8581730
 101.6473880  10.8219790  15.4245130  94.2915550  11.3778190  17.7371520
  94.1158030  10.4613730  17.5239320  93.4371290  11.7365480  17.9769320
 101.5153300   9.1067220  14.5197900 100.8218460   9.1044510  13.8600180
 102.2576160   8.6826540  14.0892070 101.0803230  10.7329930  18.5946390
 101.5360180   9.9519310  18.9085010 101.4195750  11.4436750  19.1387570
  88.8305780   6.5046390  25.7537130  88.9936820   6.0351750  24.9356500
  89.2958230   5.9969950  26.4185970  95.3275580   1.9785800  14.0366210
  94.7592480   1.5304050  13.4102120  96.0364580   2.3378580  13.5031360
  90.4044760   5.8797820  27.9132940  90.0199550   5.2391490  28.5115900
  90.7156950   6.5833940  28.4827670  96.5541900   2.7274360  23.3941560
  96.9212030   2.2532930  24.1402900  96.3646960   3.6015930  23.7349900
  94.3441270   1.7683000  25.7125770  94.0398340   2.6474980  25.9376130
  95.2987730   1.8282790  25.7483210  92.8723060   5.9743990  16.3092620
  92.0985320   5.4341610  16.1491340  93.6017690   5.4550600  15.9710380
 103.6311040   4.9709350  22.1019010 104.3510160   5.4664640  21.7115120
 103.4292860   4.2927240  21.4572880  99.0129840   5.0418410  27.9888010
  98.9467150   4.1214080  27.7345600  98.3834980   5.1393850  28.7032650
  92.9160460   5.6424370  19.9471430  93.4339130   4.8392630  19.8928320
  92.4644480   5.5803510  20.7888260  97.8029960   6.9090650  15.2198730
  98.1445660   7.6532880  14.7242050  96.9742670   7.2221770  15.5823560
  90.4005000   2.6085740  26.8597130  90.0419940   3.2739590  27.4470470
  90.1059560   1.7769290  27.2309750  93.6018120   3.0669980  29.7436680
  93.3018260   3.2127160  28.8464500  94.3729360   2.5075270  29.6510070
  98.9446570   7.8638980  27.7391810  98.9591110   6.9319940  27.5210720
  98.2371670   7.9498740  28.3781580 104.0783640   2.0478800  14.0090420
 103.9947360   2.4793020  13.1586860 104.7977830   2.5077150  14.4417240
 105.1557780   4.5046320  27.0860390 104.4305970   5.0975100  26.8889780
 105.6833240   4.4969860  26.2873760 105.1070890   8.9021060  16.7372550
 104.4647050   8.2476680  17.0116270 104.7201550   9.3076150  15.9613220
 100.6857370   6.2306490  20.5844240 101.0381190   5.6334620  19.9245610
  99.8019700   5.9050720  20.7552490  96.7720650   6.9904180  17.9914650
  97.4591780   7.5373390  18.3722240  95.9853070   7.5344910  18.0264260
  88.9113050   2.6077000  13.4831730  89.7807900   2.8901800  13.7667650
  88.4203370   3.4212870  13.3680540  96.0747860   3.9950210  17.6040010
  96.5310640   4.8055460  17.8300200  95.7236070   3.6773350  18.4358500
  98.3780470   9.5056550  24.8332310  99.0222690   9.7115930  25.5105730
  98.7409910   8.7444950  24.3803160  99.6512550   7.5088900  23.5509760
 100.2934780   6.8082060  23.6641930 100.1761900   8.2887340  23.3706650
 103.4968270   7.7937520  13.2748900 103.2705850   7.0767960  13.8673540
 103.1064470   7.5449960  12.4370650 101.4250170   8.3083800  26.7545820
 101.7606410   8.8950490  27.4323740 100.5050510   8.1776510  26.9843610
  89.2784300  11.8204380  14.0493360  89.6381940  12.4193720  13.3950630
  89.1376640  12.3664270  14.8228390 103.0784520   5.7109460  14.9363060
 102.7906220   6.1722150  15.7240940 103.8736690   5.2507230  15.2047280
  89.2626160  10.0859240  28.5235760  89.3717280   9.1453980  28.3831150
  88.6106720  10.3513990  27.8749490  97.2538750   8.3575130  29.9233880
  96.9335620   7.6384370  30.4679570  96.5797110   9.0330200  29.9969940
  95.2952920   9.2035580  14.8667030  95.2863020   9.9365270  14.2511540
  94.3751280   8.9567160  14.9593990  90.8959560   4.4250470  15.6113790
  90.2887510   5.1649370  15.6209090  91.3708910   4.5149830  14.7851990
  98.2812520   9.2663820  13.5292220  98.3824500   9.0627810  12.5994200
  97.3814260   9.0122100  13.7340000  96.9230630  11.7850140  18.2239890
  97.1772130  11.7471530  17.3019260  95.9743110  11.6583470  18.2168140
 102.9283210   2.7042020  19.7998400 101.9873350   2.7192250  19.9746090
 103.2427280   1.9177980  20.2458700  92.9064850   4.3861620  13.3602360
  93.6728120   4.2742980  13.9227790  92.9839540   3.6899590  12.7079130
 104.9308790   9.8750870  21.4752660 105.0556210  10.6982040  21.9476470
 105.7974350   9.6641600  21.1276810  92.4026320  11.9682080  21.1469790
  93.1388800  11.4197540  21.4178360  92.7867240  12.8338090  21.0075780
  89.2871800   8.0355650  17.0211300  88.3611580   8.2776790  17.0116710
  89.7528230   8.8629910  16.8996050  91.4084600  11.1528150  30.3355370
  92.2097330  11.4740200  30.7490770  90.8936420  10.7923730  31.0575280
  95.5128630  11.1412390  12.9695360  96.3057240  11.4301220  12.5177150
  94.9932980  10.7104560  12.2907840 100.2449230   7.2608020  30.2830780
  99.6387390   7.2839620  29.5426530  99.9403340   6.5291060  30.8198030
 101.6749600  10.9888310  28.8940190 102.6271350  10.9046330  28.8440430
 101.5277820  11.6530020  29.5673980 104.5658800  10.3682520  14.3932100
 104.2800310   9.9547660  13.5786280 104.3678350  11.2970230  14.2732620
  89.1282410   3.6401610  29.2791420  89.6321430   3.0608890  29.8507650
  88.3889830   3.9241840  29.8167790  96.0306030   6.3615800  12.8337710
  95.9256670   5.7468150  13.5599090  95.8630250   5.8381690  12.0500720
  96.1820350   5.0472600  28.8126940  95.4166020   5.6157600  28.7281610
  96.3636310   4.7548810  27.9195170  99.2708760   5.4235830  13.4379700
  98.7218860   5.8705130  14.0822440  99.8928020   4.9185080  13.9617370
 103.3243700   6.7777930  29.3701960 104.0653170   7.1153690  28.8669420
 102.5616380   6.9469990  28.8171730  91.1605490   1.7831200  30.1741490
  91.2010830   1.4845070  31.0826720  92.0150990   2.1838810  30.0149010
  94.9383880   4.3826750  15.3345000  95.3600300   4.2166620  16.1776390
  95.0634720   3.5726980  14.8400140  97.4511520   3.4064360  12.5822100
  97.9717180   2.6913380  12.2163250  98.0979920   4.0450230  12.8822610
 101.9989360   4.8292760  27.9057170 102.4130380   4.9837840  28.7547590
 101.0640360   4.9547980  28.0682950 102.4711530   2.1688920  29.9096320
 103.0532300   1.4141240  29.8216800 102.6473300   2.6996360  29.1327800
  96.7604590   4.7813240  25.8753100  97.1792700   5.6245970  25.7029340
  95.8413220   4.9185280  25.6459880  99.0968490   2.5129420  27.2590940
  99.2164700   1.9170560  27.9985780  99.9562490   2.5499110  26.8392240
 101.4356390   3.0666610  25.8353450 100.9091610   3.5909230  25.2318590
 101.7787730   3.6994000  26.4663180  94.6112010  11.0866250  26.9910830
  94.0733100  11.8112310  26.6719530  94.8645970  10.6096590  26.2008170
  97.4674220  12.3217460  27.2497480  97.3932920  13.2252600  27.5569850
  96.5653060  12.0029360  27.2219550  98.0159550  11.4875970  14.8723840
  98.9110340  11.8260940  14.8942600  98.0477180  10.7655380  14.2448120
  91.6555710   6.8603020  13.1010840  92.0930580   7.4032690  13.7568420
  92.1403440   6.0349970  13.1107180  88.8701510   9.6492050  20.5531100
  89.2004520   8.7813110  20.3209740  89.2992510   9.8550570  21.3836060
  93.4663430   7.9801060  18.2133070  93.1658970   7.8566030  19.1136980
  93.3600920   7.1209650  17.8048800  89.3591720  10.5162640  23.2912730
  88.9222710  10.6963440  24.1236880  89.9269400  11.2737260  23.1494450
 104.9953900  10.0179640  27.5790040 104.3955890  10.0772200  26.8353960
 105.1247800   9.0784620  27.7086890 106.2355350   7.7597460  12.9159750
 105.4048310   7.8274110  13.3866980 106.4127180   8.6501580  12.6126610
 105.6911810   4.5044940  15.4193950 106.4530720   5.0741590  15.5253640
 105.7066180   3.9372140  16.1902260  89.1916150   3.0282870  19.6501610
  88.5364990   2.7594510  19.0061310  90.0294100   2.9187350  19.2003590
 106.6971780   5.3595040  20.2635880 107.0680610   4.5762360  19.8571850
 107.3373710   6.0484140  20.0853180 103.6805540   6.7431620  25.6766200
 102.8665380   7.1728780  25.9391990 104.0879740   7.3550030  25.0635250
 105.7430980   4.7979310  12.5766470 106.0179820   5.7058190  12.4485690
 105.5541720   4.7341840  13.5128460 105.6396320   2.7348300  17.5695900
 105.2639920   1.9676230  17.1377190 104.9099440   3.1171000  18.0570830
  90.2292080   3.4135440  24.1904950  90.5965120   3.3262840  25.0700970
  89.6602900   2.6501990  24.0911810 105.0295940   1.8819820  27.2035420
 104.7982030   1.6532570  26.3033370 105.2900490   2.8019370  27.1580310
 103.7381590  11.4950220  19.2034470 104.3340660  11.1734790  18.5268890
 103.9959740  11.0222040  19.9947740  91.6444160   7.9268130  29.3525100
  91.6013790   7.5561040  30.2339560  91.7755170   8.8645700  29.4926920
  95.3450190   9.4827720  24.9534820  95.1041550   9.7502280  24.0665340
  96.2852830   9.6533450  25.0085680 106.6054350  11.5022100  25.7545460
 106.1112630  11.8990970  25.0372590 105.9967640  10.8771310  26.1482740
  91.4832190  10.8730380  26.4722880  90.8892510  10.7415080  27.2112920
  91.4756030  10.0368520  26.0064980 104.2893800  12.1445520  23.0332200
 103.8296770  12.8961330  22.6590220 103.6606260  11.4251990  22.9747000
  91.1144420   8.2388760  25.4230920  90.3878480   7.6194050  25.3556870
  91.1753570   8.6329370  24.5529000  94.7189520  10.4533760  22.2080330
  95.2354540   9.8421120  21.6828590  95.3686900  10.9562540  22.6991340
  97.4585020  11.3442250  23.0349310  97.7462830  11.0896550  22.1582320
  97.9708240  10.7919610  23.6254880  89.3974420  11.5563150  18.6327680
  89.2296460  10.9233830  19.3309570  88.5308930  11.7622550  18.2821870
  91.0037120  10.2496380  16.0777820  90.4784740  10.6304410  15.3739780
  90.9281700  10.8747150  16.7987530  97.5257380  12.2658350  30.4017510
  98.4524690  12.0302620  30.4453470  97.5107810  13.0930350  29.9203540
 105.7602440  11.8083920  17.3991760 105.9354630  11.1221660  16.7552680
 105.0624010  12.3330970  17.0068430  93.6030090  12.1978760  14.9527070
  94.3348910  11.9138040  14.4050960  93.8623760  11.9592040  15.8426450
  92.7644880   8.3143490  14.9573400  92.1353760   8.7828590  15.5059230
  92.8792710   7.4692710  15.3919590 104.0934940  11.4928210  30.2258550
 104.8860260  10.9977440  30.0184510 104.3868090  12.1718350  30.8334160
  98.3512640   4.1428170   2.9883870  97.5754740   3.6628610   3.2782440
  99.0025570   3.4633820   2.8140030  92.3678470   4.4547980   3.8659630
  91.5363350   4.1996690   4.2656140  92.9759450   4.5258750   4.6017550
 102.3720070   8.5488360   1.7683000 101.9101600   7.7775600   2.0970170
 103.1845620   8.5754430   2.2735450  92.3479730   8.4888070   4.0617650
  92.6507770   7.5985810   3.8827870  93.0923320   9.0458290   3.8339900
  88.7403430   2.0155520   3.5341720  89.3119540   1.2477720   3.5345360
  88.7404970   2.3144280   2.6248330  97.7921630   6.8185360   2.9954030
  97.7229910   5.8775300   2.8343160  98.5541490   6.9086770   3.5676600
  94.3278490   5.2461480   5.4602500  93.9947870   5.8730400   6.1023570
  94.5045170   5.7723360   4.6804170  93.5397590   7.2142280   7.2751680
  94.1571590   7.8893360   6.9936130  92.6790710   7.6230260   7.1839180
 104.4575180   8.6781690   5.1906320 103.7738700   9.3480800   5.1822990
 104.9969470   8.8762340   4.4251180 101.9933920  10.5225820   3.9051500
 102.0061080  10.1188110   3.0373760 101.4409140  11.2973110   3.8012930
 101.3919360   5.4255660   5.2334110 101.8088150   5.2115770   4.3987570
 102.1159180   5.6828450   5.8042730 105.3381460   3.8242880   5.3250350
 104.5100090   3.8935970   4.8500480 105.9331940   4.4097190   4.8566180
  94.9037960   7.0839660   3.2963100  94.6066250   6.4785130   2.6170880
  95.8537780   7.1216970   3.1852460 102.9923570  10.6571530   6.9586200
 102.5154130  11.4643720   6.7658810 102.3085360  10.0049860   7.1112410
  93.9956390   6.8221350   9.9470900  93.0984920   7.0461320  10.1944300
  94.0209260   6.9456290   8.9982300  92.8227610   3.6934670   8.5228270
  92.6835380   4.5657470   8.8915670  91.9408970   3.3507480   8.3776210
  94.6207960   9.6356370  10.7313420  94.5923390  10.0399320   9.8641850
  94.4572930   8.7066730  10.5685020 106.5722780  10.4183470  12.0277590
 107.0482500  10.8966360  12.7066670 107.1929940  10.3500960  11.3023090
  88.7746260   5.4632220   4.4399180  88.8526680   5.5980990   3.4954900
  89.3887940   4.7548110   4.6327300 105.9756030   7.6096320   9.1877600
 106.1019090   7.3708200   8.2694780 106.0177410   6.7780860   9.6599680
  99.8372770  11.3124320   7.7572410 100.3517440  11.2232330   8.5594840
  98.9941850  11.6584020   8.0500320  88.8305780   6.5046390   6.9793640
  88.9936820   6.0351750   6.1613010  89.2958230   5.9969950   7.6442480
  90.4044760   5.8797820   9.1389450  90.0199550   5.2391490   9.7372410
  90.7156950   6.5833940   9.7084180  96.5541900   2.7274360   4.6198070
  96.9212030   2.2532930   5.3659410  96.3646960   3.6015930   4.9606410
  94.3441270   1.7683000   6.9382280  94.0398340   2.6474980   7.1632640
  95.2987730   1.8282790   6.9739720 103.6311040   4.9709350   3.3275520
 104.3510160   5.4664640   2.9371630 103.4292860   4.2927240   2.6829390
  99.0129840   5.0418410   9.2144520  98.9467150   4.1214080   8.9602110
  98.3834980   5.1393850   9.9289160  90.4005000   2.6085740   8.0853640
  90.0419940   3.2739590   8.6726980  90.1059560   1.7769290   8.4566260
  93.6018120   3.0669980  10.9693190  93.3018260   3.2127160  10.0721010
  94.3729360   2.5075270  10.8766580  98.9446570   7.8638980   8.9648320
  98.9591110   6.9319940   8.7467230  98.2371670   7.9498740   9.6038090
 105.1557780   4.5046320   8.3116900 104.4305970   5.0975100   8.1146290
 105.6833240   4.4969860   7.5130270  98.3780470   9.5056550   6.0588820
  99.0222690   9.7115930   6.7362240  98.7409910   8.7444950   5.6059670
  99.6512550   7.5088900   4.7766270 100.2934780   6.8082060   4.8898440
 100.1761900   8.2887340   4.5963160 101.4250170   8.3083800   7.9802330
 101.7606410   8.8950490   8.6580250 100.5050510   8.1776510   8.2100120
  89.2626160  10.0859240   9.7492270  89.3717280   9.1453980   9.6087660
  88.6106720  10.3513990   9.1006000  97.2538750   8.3575130  11.1490390
  96.9335620   7.6384370  11.6936080  96.5797110   9.0330200  11.2226450
 104.9308790   9.8750870   2.7009170 105.0556210  10.6982040   3.1732980
 105.7974350   9.6641600   2.3533320  92.4026320  11.9682080   2.3726300
  93.1388800  11.4197540   2.6434870  92.7867240  12.8338090   2.2332290
  91.4084600  11.1528150  11.5611880  92.2097330  11.4740200  11.9747280
  90.8936420  10.7923730  12.2831790 100.2449230   7.2608020  11.5087290
  99.6387390   7.2839620  10.7683040  99.9403340   6.5291060  12.0454540
 101.6749600  10.9888310  10.1196700 102.6271350  10.9046330  10.0696940
 101.5277820  11.6530020  10.7930490  89.1282410   3.6401610  10.5047930
  89.6321430   3.0608890  11.0764160  88.3889830   3.9241840  11.0424300
  96.1820350   5.0472600  10.0383450  95.4166020   5.6157600   9.9538120
  96.3636310   4.7548810   9.1451680 103.3243700   6.7777930  10.5958470
 104.0653170   7.1153690  10.0925930 102.5616380   6.9469990  10.0428240
  91.1605490   1.7831200  11.3998000  91.2010830   1.4845070  12.3083230
  92.0150990   2.1838810  11.2405520 101.9989360   4.8292760   9.1313680
 102.4130380   4.9837840   9.9804100 101.0640360   4.9547980   9.2939460
 102.4711530   2.1688920  11.1352830 103.0532300   1.4141240  11.0473310
 102.6473300   2.6996360  10.3584310  96.7604590   4.7813240   7.1009610
  97.1792700   5.6245970   6.9285850  95.8413220   4.9185280   6.8716390
  99.0968490   2.5129420   8.4847450  99.2164700   1.9170560   9.2242290
  99.9562490   2.5499110   8.0648750 101.4356390   3.0666610   7.0609960
 100.9091610   3.5909230   6.4575100 101.7787730   3.6994000   7.6919690
  94.6112010  11.0866250   8.2167340  94.0733100  11.8112310   7.8976040
  94.8645970  10.6096590   7.4264680  97.4674220  12.3217460   8.4753990
  97.3932920  13.2252600   8.7826360  96.5653060  12.0029360   8.4476060
  88.8701510   9.6492050   1.7787610  89.2004520   8.7813110   1.5466250
  89.2992510   9.8550570   2.6092570  89.3591720  10.5162640   4.5169240
  88.9222710  10.6963440   5.3493390  89.9269400  11.2737260   4.3750960
 104.9953900  10.0179640   8.8046550 104.3955890  10.0772200   8.0610470
 105.1247800   9.0784620   8.9343400 103.6805540   6.7431620   6.9022710
 102.8665380   7.1728780   7.1648500 104.0879740   7.3550030   6.2891760
  90.2292080   3.4135440   5.4161460  90.5965120   3.3262840   6.2957480
  89.6602900   2.6501990   5.3168320 105.0295940   1.8819820   8.4291930
 104.7982030   1.6532570   7.5289880 105.2900490   2.8019370   8.3836820
  91.6444160   7.9268130  10.5781610  91.6013790   7.5561040  11.4596070
  91.7755170   8.8645700  10.7183430  95.3450190   9.4827720   6.1791330
  95.1041550   9.7502280   5.2921850  96.2852830   9.6533450   6.2342190
 106.6054350  11.5022100   6.9801970 106.1112630  11.8990970   6.2629100
 105.9967640  10.8771310   7.3739250  91.4832190  10.8730380   7.6979390
  90.8892510  10.7415080   8.4369430  91.4756030  10.0368520   7.2321490
 104.2893800  12.1445520   4.2588710 103.8296770  12.8961330   3.8846730
 103.6606260  11.4251990   4.2003510  91.1144420   8.2388760   6.6487430
  90.3878480   7.6194050   6.5813380  91.1753570   8.6329370   5.7785510
  94.7189520  10.4533760   3.4336840  95.2354540   9.8421120   2.9085100
  95.3686900  10.9562540   3.9247850  97.4585020  11.3442250   4.2605820
  97.7462830  11.0896550   3.3838830  97.9708240  10.7919610   4.8511390
  97.5257380  12.2658350  11.6274020  98.4524690  12.0302620  11.6709980
  97.5107810  13.0930350  11.1460050 104.0934940  11.4928210  11.4515060
 104.8860260  10.9977440  11.2441020 104.3868090  12.1718350  12.0590670
  81.4451110  96.2366600  57.4305070  81.3645160  95.3221210  57.1596780
  81.0315530  96.7333670  56.7244780  79.5769150  98.0145620  59.3114340
  78.8011250  97.5346060  59.6012910  80.2282080  97.3351270  59.1370500
  72.0026930  93.2867320  53.9732490  71.1143630  93.6283290  53.8712370
  72.2868120  93.0867640  53.0813320  69.9659940  95.8872970  59.8572190
  70.5376050  95.1195170  59.8575830  69.9661480  96.1861730  58.9478800
  80.0483310  93.4973190  59.5453430  80.4248130  92.6245070  59.4327100
  79.9502820  93.8331890  58.6543870  74.1788320  91.8698820  55.0070870
  74.2855070  92.7702550  55.3139630  73.2680680  91.8216790  54.7165520
  83.8307430  90.9923630  56.4781770  84.6517050  90.5020200  56.5207250
  83.8641510  91.5821290  57.2313610  76.0196050  94.8385190  59.3396050
  76.5274270  95.3366160  59.9801070  76.5509290  94.0620390  59.1635410
  84.0668910  92.9324010  59.2509310  83.3624480  93.2208900  59.8312420
  84.4281070  93.7424120  58.8908870  87.1355830  92.3778800  59.6418520
  86.1880740  92.4117780  59.7733950  87.4605820  93.1917750  60.0267880
  77.6675370  88.6775980  57.9374510  77.9750350  88.1222870  57.2210010
  76.7376070  88.8120440  57.7547500  80.0556130  96.7424810  54.6734630
  79.1285410  96.6762190  54.9023100  80.2080950  97.6804940  54.5589870
  80.0425210  93.0141810  51.6701790  79.1028880  93.1755770  51.7554250
  80.3608470  93.7327490  51.1237780  84.0853420  98.3045110  55.1769880
  83.4665840  97.9664660  54.5296180  84.0677870  97.6604870  55.8849070
  75.6612770  97.2689550  57.4554360  75.2569770  96.5566800  56.9600260
  75.7475890  96.9242790  58.3442400  82.2618120  97.5431920  52.1842630
  82.7011400  96.7054350  52.0380450  82.9746540  98.1761320  52.2706770
  85.8435260  88.7974730  50.4983670  85.5307920  88.8901560  51.3982740
  86.6047730  89.3755760  50.4481100  72.3617400  96.1634530  54.9561010
  72.2415000  96.8896620  54.3442280  72.0518290  95.3937440  54.4788920
  74.8281060  89.5069600  58.3384680  74.3849210  90.2879140  58.0069200
  75.3866050  89.8299490  59.0455620  77.9439880  89.1280300  53.2190510
  77.3194060  89.1240170  53.9443820  77.8570000  88.2611260  52.8226480
  76.8656960  90.0516930  60.1974280  77.1629290  90.9579760  60.1166300
  77.4142520  89.5635710  59.5833850  74.6195280  94.6303170  56.0665930
  74.3936200  94.4140340  56.9712550  73.8387810  95.0631630  55.7211900
  81.8493040  94.6366540  54.6656580  81.2501930  95.3602340  54.4820200
  82.3972650  94.5743320  53.8833030  80.4557910  93.2730080  56.6959860
  80.8487480  93.5902280  55.8828550  80.8174760  92.3941960  56.8104380
  69.4922080  89.8630880  58.9190060  69.2035130  90.4333740  59.6315040
  70.2367840  89.3835330  59.2821290  69.6792310  93.8051000  50.1292780
  69.5966980  94.7481760  50.2707770  69.3275370  93.6625910  49.2505130
  77.4790440  92.5390030  59.1963130  77.4826500  92.0979980  58.3467670
  78.3741560  92.8607360  59.3034950  73.3292820  92.4216520  58.1557340
  72.9892870  92.8991750  58.9124390  72.5670140  91.9681640  57.7958440
  77.5410590  93.5402110  52.1869890  77.6623410  93.4988590  53.1355710
  77.1559100  94.4026260  52.0316620  76.5532090  95.8503250  51.5853190
  75.9848990  95.4021500  50.9589100  77.2621090  96.2096030  51.0518340
  70.6438900  91.3435500  57.0722010  70.3585820  90.9791170  57.9100630
  70.5817760  90.6115960  56.4585150  80.3177490  90.2364760  53.7935380
  79.5042100  89.7377930  53.7180690  80.1239440  91.0763010  53.3771730
  83.0325880  94.6084410  52.0897540  83.9205500  94.9201640  51.9148880
  83.0030970  93.7356660  51.6978120  70.1369560  96.4794450  51.0318710
  71.0064410  96.7619250  51.3154630  69.6459880  97.2930320  50.9167520
  77.3004370  97.8667660  55.1526990  77.7567150  98.6772910  55.3787180
  76.9492580  97.5490800  55.9845480  73.2016150  88.2105310  55.6249510
  73.0730780  88.2023210  56.5734430  72.3778170  88.5488400  55.2740520
  85.0610890  91.4175680  53.6445220  84.4324050  91.5221350  52.9303450
  84.5662810  91.6372460  54.4339100  77.0294920  93.6961630  55.0603100
  76.3211070  94.1647970  55.5016710  77.3139400  93.0383640  55.6948290
  81.0610350  90.4212290  56.4998890  80.9378130  90.4398420  55.5508400
  82.0094910  90.4691230  56.6197290  75.2329940  92.0046710  52.4353810
  76.0820470  92.4416860  52.3694000  74.8661210  92.3166970  53.2625870
  84.1539720  96.5759470  57.3485380  83.2129860  96.5909700  57.5233070
  84.4683790  95.7895430  57.7945680  74.1321360  98.2579070  50.9089340
  74.8984630  98.1460430  51.4714770  74.2096050  97.5617040  50.2566110
  72.8268120  95.6904140  51.5922230  72.9071710  94.7431650  51.7039630
  73.7187870  96.0211020  51.6982890  76.1640390  98.2544200  52.8831980
  76.5856810  98.0884070  53.7263370  76.2891230  97.4444430  52.3887120
  78.6768030  97.2781810  50.1309080  79.1973690  96.5630830  49.7650230
  79.3236430  97.9167680  50.4309590  75.0599290  94.3277430  49.8290140
  74.8588350  93.4644790  50.1903480  74.8891340  94.2410790  48.8911740
  82.5387600  89.1385660  52.3577020  82.8189890  88.2953560  52.7136440
  81.7653330  89.3708770  52.8715770  73.8582090  91.4278050  49.8168020
  74.1607990  91.4345480  48.9087170  74.5976680  91.0775910  50.3135680
  77.0767020  90.3712670  50.8024220  76.7289020  89.6936660  50.2226670
  77.2779790  89.9102180  51.6167610  86.9168320  98.3762390  52.9680930
  87.6787230  98.9459040  53.0740620  86.9322690  97.8089590  53.7389240
  70.4172660  96.9000320  57.1988590  69.7621500  96.6311960  56.5548290
  71.2550610  96.7904800  56.7490570  83.3663100  91.6941610  51.4207080
  83.7847980  91.5072590  50.5803740  83.0599160  90.8420660  51.7310010
  86.8652830  96.6065750  55.1182880  86.4896430  95.8393680  54.6864170
  86.1355950  96.9888450  55.6057810  69.6310740  94.1099250  53.1413920
  68.7274820  94.3729450  52.9665580  70.1151360  94.3810420  52.3613880
  86.1403790  94.8323240  58.4190120  86.6641270  94.3385890  57.7880290
  86.7263210  94.9673600  59.1637690  72.1737950  93.1664790  51.0508300
  72.8829650  92.7448010  50.5655580  71.4577890  93.2340020  50.4191650
  71.8212110  89.2204120  50.0910950  72.5440240  89.7613060  50.4092170
  72.0936630  88.9467540  49.2152490  85.6303760  94.0896590  54.3582530
  86.1262880  93.8567460  55.1431410  85.4319830  93.2508430  53.9420170
  87.0590920  92.7257540  56.8920210  86.9490200  92.5713580  57.8302480
  87.8198510  92.1978480  56.6495620  87.9481190  90.5565460  50.1326350
  88.8730500  90.4246640  49.9244640  87.9256980  90.6358280  51.0862800
  88.0219680  91.3276120  52.7583060  87.2271180  91.2621240  53.2875970
  88.2262960  92.2626760  52.7468410  84.4539610  89.6573000  59.2081890
  84.8947700  89.6018100  58.3603490  84.1847200  90.5731010  59.2792070
  86.3178180  89.2888240  57.2190710  86.2566580  88.3449460  57.0721730
  87.0970210  89.3968330  57.7644170  71.2458950  89.2597380  53.6846520
  72.0038310  89.3726260  53.1110550  70.7836120  90.0966580  53.6389950
  77.7872760  91.3736650  56.6748830  76.9747270  90.9993540  56.3344710
  78.2914400  90.6181730  56.9770020  82.2897740  88.0379100  57.9131900
  82.8927110  88.6099310  58.3880420  81.5490730  88.6018540  57.6905800
  85.4332340  88.4400660  53.1872180  85.6282970  89.3384110  53.4539610
  84.6462210  88.2087740  53.6805130  73.6184100  89.7861430  52.2248490
  74.1476860  88.9991230  52.0956440  74.2512420  90.4652620  52.4584020
  75.8121940  89.5236570  55.2793880  75.1824680  88.8223880  55.4464010
  75.2727080  90.2840700  55.0627040  81.4451110  96.2366600  38.6561580
  81.3645160  95.3221210  38.3853290  81.0315530  96.7333670  37.9501290
  79.5769150  98.0145620  40.5370850  78.8011250  97.5346060  40.8269420
  80.2282080  97.3351270  40.3627010  73.5934980  98.3265430  41.4146610
  72.7619860  98.0714140  41.8143120  74.2015960  98.3976200  42.1504530
  72.0026930  93.2867320  35.1989000  71.1143630  93.6283290  35.0968880
  72.2868120  93.0867640  34.3069830  69.9659940  95.8872970  41.0828700
  70.5376050  95.1195170  41.0832340  69.9661480  96.1861730  40.1735310
  71.2084810  91.2957330  42.8697630  71.0287650  90.3983080  43.1500390
  70.8064890  91.8429200  43.5444580  80.0483310  93.4973190  40.7709940
  80.4248130  92.6245070  40.6583610  79.9502820  93.8331890  39.8800380
  74.1788320  91.8698820  36.2327380  74.2855070  92.7702550  36.5396140
  73.2680680  91.8216790  35.9422030  83.8307430  90.9923630  37.7038280
  84.6517050  90.5020200  37.7463760  83.8641510  91.5821290  38.4570120
  71.8271480  93.7917830  41.4779970  72.5081590  94.0556200  42.0967370
  71.5119530  92.9518700  41.8117980  76.0196050  94.8385190  40.5652560
  76.5274270  95.3366160  41.2057580  76.5509290  94.0620390  40.3891920
  88.1206980  93.0090380  44.2681910  87.4159150  93.3972090  43.7497020
  88.3864900  93.7040670  44.8702840  84.0668910  92.9324010  40.4765820
  83.3624480  93.2208900  41.0568930  84.4281070  93.7424120  40.1165380
  73.9847480  91.1893710  42.8386430  74.3264290  92.0335760  42.5440300
  73.0463290  91.3377450  42.9551770  87.1355830  92.3778800  40.8675030
  86.1880740  92.4117780  40.9990460  87.4605820  93.1917750  41.2524390
  77.6675370  88.6775980  39.1631020  77.9750350  88.1222870  38.4466520
  76.7376070  88.8120440  38.9804010  80.0556130  96.7424810  35.8991140
  79.1285410  96.6762190  36.1279610  80.2080950  97.6804940  35.7846380
  80.0425210  93.0141810  32.8958300  79.1028880  93.1755770  32.9810760
  80.3608470  93.7327490  32.3494290  86.5637970  97.6960330  42.8737330
  85.7356600  97.7653420  42.3987460  87.1588450  98.2814640  42.4053160
  84.0853420  98.3045110  36.4026390  83.4665840  97.9664660  35.7552690
  84.0677870  97.6604870  37.1105580  83.5279980  94.4829650  43.8192200
  83.1151160  95.3083360  44.0732190  82.7955930  93.8974690  43.6268560
  75.6612770  97.2689550  38.6810870  75.2569770  96.5566800  38.1856770
  75.7475890  96.9242790  39.5698910  74.3741390  94.0432760  42.4609910
  74.9255980  94.1528100  41.6863160  74.8884900  94.4170360  43.1765140
  82.2618120  97.5431920  33.4099140  82.7011400  96.7054350  33.2636960
  82.9746540  98.1761320  33.4963280  74.0484120  97.5652120  46.0715250
  73.9091890  98.4374920  46.4402650  73.1665480  97.2224930  45.9263190
  85.8435260  88.7974730  31.7240180  85.5307920  88.8901560  32.6239250
  86.6047730  89.3755760  31.6737610  72.3617400  96.1634530  36.1817520
  72.2415000  96.8896620  35.5698790  72.0518290  95.3937440  35.7045430
  87.0536550  93.5346230  47.7014320  86.4380820  94.0425900  47.1729780
  86.7332970  92.6344560  47.6440260  74.8281060  89.5069600  39.5641190
  74.3849210  90.2879140  39.2325710  75.3866050  89.8299490  40.2712130
  79.1150870  92.3738120  45.1676510  78.6530240  92.5821140  45.9796450
  78.7128980  91.5597470  44.8647180  84.1155380  93.5947070  46.2973170
  83.2648970  93.2952820  46.6182240  83.9557170  93.8389080  45.3856990
  81.2105090  95.0948820  48.3971960  81.5358500  94.2612570  48.0574190
  81.9985420  95.6177340  48.5450290  77.9439880  89.1280300  34.4447020
  77.3194060  89.1240170  35.1700330  77.8570000  88.2611260  34.0482990
  76.8656960  90.0516930  41.4230790  77.1629290  90.9579760  41.3422810
  77.4142520  89.5635710  40.8090360  74.6195280  94.6303170  37.2922440
  74.3936200  94.4140340  38.1969060  73.8387810  95.0631630  36.9468410
  81.8493040  94.6366540  35.8913090  81.2501930  95.3602340  35.7076710
  82.3972650  94.5743320  35.1089540  77.0594490  95.5288750  47.9582710
  76.9638090  94.5883480  47.8083110  77.9026470  95.7503820  47.5630780
  80.4557910  93.2730080  37.9216370  80.8487480  93.5902280  37.1085060
  80.8174760  92.3941960  38.0360890  72.1905030  91.9402420  46.1116490
  71.7968420  92.7877630  46.3189270  71.5023430  91.3028790  46.3025130
  78.7650080  92.0237390  49.1813230  78.0748400  91.8309590  49.8159320
  79.5082380  92.3072030  49.7137530  69.4922080  89.8630880  40.1446570
  69.2035130  90.4333740  40.8571550  70.2367840  89.3835330  40.5077800
  69.6792310  93.8051000  31.3549290  69.5966980  94.7481760  31.4964280
  69.3275370  93.6625910  30.4761640  81.0413050  95.8635830  42.0167150
  80.3094170  96.3722640  42.3657250  80.6437390  95.0465810  41.7155930
  77.4790440  92.5390030  40.4219640  77.4826500  92.0979980  39.5724180
  78.3741560  92.8607360  40.5291460  73.3292820  92.4216520  39.3813850
  72.9892870  92.8991750  40.1380900  72.5670140  91.9681640  39.0214950
  77.5410590  93.5402110  33.4126400  77.6623410  93.4988590  34.3612220
  77.1559100  94.4026260  33.2573130  81.5038960  91.3169510  41.4290090
  81.5211700  91.7678160  42.2731940  81.2554540  90.4175150  41.6423530
  76.5532090  95.8503250  32.8109700  75.9848990  95.4021500  32.1845610
  77.2621090  96.2096030  32.2774850  84.9309710  88.7301690  47.2676470
  85.2555480  87.9991350  47.7934450  84.9666220  88.4115330  46.3657460
  77.7798410  96.5991810  42.1685050  78.1468540  96.1250380  42.9146390
  77.5903470  97.4733380  42.5093390  70.6438900  91.3435500  38.2978520
  70.3585820  90.9791170  39.1357140  70.5817760  90.6115960  37.6841660
  75.5697780  95.6400450  44.4869260  75.2654850  96.5192430  44.7119620
  76.5244240  95.7000240  44.5226700  80.3177490  90.2364760  35.0191890
  79.5042100  89.7377930  34.9437200  80.1239440  91.0763010  34.6028240
  83.0325880  94.6084410  33.3154050  83.9205500  94.9201640  33.1405390
  83.0030970  93.7356660  32.9234630  71.6261510  96.4803190  45.6340620
  71.2676450  97.1457040  46.2213960  71.3316070  95.6486740  46.0053240
  74.8274630  96.9387430  48.5180170  74.5274770  97.0844610  47.6207990
  75.5985870  96.3792720  48.4253560  85.3040150  95.9196250  32.7833910
  85.2203870  96.3510470  31.9330350  86.0234340  96.3794600  33.2160730
  86.3814290  98.3763770  45.8603880  85.6562480  98.9692550  45.6633270
  86.9089750  98.3687310  45.0617250  70.1369560  96.4794450  32.2575220
  71.0064410  96.7619250  32.5411140  69.6459880  97.2930320  32.1424030
  77.3004370  97.8667660  36.3783500  77.7567150  98.6772910  36.6043690
  76.9492580  97.5490800  37.2101990  73.2016150  88.2105310  36.8506020
  73.0730780  88.2023210  37.7990940  72.3778170  88.5488400  36.4997030
  81.6948860  92.4618740  44.0614170  82.0629680  91.6413950  44.3893740
  80.8347060  92.5220630  44.4769820  85.0610890  91.4175680  34.8701730
  84.4324050  91.5221350  34.1559960  84.5662810  91.6372460  35.6595610
  77.0294920  93.6961630  36.2859610  76.3211070  94.1647970  36.7273220
  77.3139400  93.0383640  36.9204800  78.6550850  95.1158330  44.2852140
  79.1536100  95.5904150  44.9503990  78.7973800  94.1921850  44.4922170
  81.0610350  90.4212290  37.7255400  80.9378130  90.4398420  36.7764910
  82.0094910  90.4691230  37.8453800  75.2329940  92.0046710  33.6610320
  76.0820470  92.4416860  33.5950510  74.8661210  92.3166970  34.4882380
  85.8617710  91.3326290  45.1280530  85.3591310  92.0731690  45.4674340
  86.6774370  91.7210290  44.8117320  84.1539720  96.5759470  38.5741890
  83.2129860  96.5909700  38.7489580  84.4683790  95.7895430  39.0202190
  74.1321360  98.2579070  32.1345850  74.8984630  98.1460430  32.6971280
  74.2096050  97.5617040  31.4822620  72.8268120  95.6904140  32.8178740
  72.9071710  94.7431650  32.9296140  73.7187870  96.0211020  32.9239400
  70.3538920  97.5119060  48.0534910  70.8577940  96.9326340  48.6251140
  69.6146340  97.7959290  48.5911280  72.3862000  95.6548650  48.9484980
  72.4267340  95.3562520  49.8570210  73.2407500  96.0556260  48.7892500
  76.1640390  98.2544200  34.1088490  76.5856810  98.0884070  34.9519880
  76.2891230  97.4444430  33.6143630  74.3267810  94.2340750  46.9159470
  73.7964270  93.7431700  46.2882810  74.9955880  94.6624950  46.3817400
  78.6768030  97.2781810  31.3565590  79.1973690  96.5630830  30.9906740
  79.3236430  97.9167680  31.6566100  83.2245870  98.7010210  46.6800660
  83.6386890  98.8555290  47.5291080  82.2896870  98.8265430  46.8426440
  83.6968040  96.0406370  48.6839810  84.2788810  95.2858690  48.5960290
  83.8729810  96.5713810  47.9071290  74.8140110  91.2003120  46.9956760
  74.7196980  90.5823870  46.2707630  74.2337500  91.9269410  46.7686670
  77.5801550  89.7576360  44.0284150  77.1318850  89.7800620  43.1829700
  76.9466750  89.3595380  44.6254450  80.3225000  96.3846870  46.0334430
  80.4421210  95.7888010  46.7729270  81.1819000  96.4216560  45.6135730
  82.6612900  96.9384060  44.6096940  82.1348120  97.4626680  44.0062080
  83.0044240  97.5711450  45.2406670  75.0599290  94.3277430  31.0546650
  74.8588350  93.4644790  31.4159990  74.8891340  94.2410790  30.1168250
  77.0893770  92.9268220  47.2910250  77.6793460  92.6184070  47.9788070
  76.2714010  92.4547970  47.4470150  81.9087200  92.5434030  47.5243270
  81.2202720  91.8815570  47.4593260  82.6293220  92.0972300  47.9691730
  82.5387600  89.1385660  33.5833530  82.8189890  88.2953560  33.9392950
  81.7653330  89.3708770  34.0972280  73.8582090  91.4278050  31.0424530
  74.1607990  91.4345480  30.1343680  74.5976680  91.0775910  31.5392190
  77.0767020  90.3712670  32.0280730  76.7289020  89.6936660  31.4483180
  77.2779790  89.9102180  32.8424120  86.9168320  98.3762390  34.1937440
  87.6787230  98.9459040  34.2997130  86.9322690  97.8089590  34.9645750
  70.4172660  96.9000320  38.4245100  69.7621500  96.6311960  37.7804800
  71.2550610  96.7904800  37.9747080  83.3663100  91.6941610  32.6463590
  83.7847980  91.5072590  31.8060250  83.0599160  90.8420660  32.9566520
  86.8652830  96.6065750  36.3439390  86.4896430  95.8393680  35.9120680
  86.1355950  96.9888450  36.8314320  71.4548590  97.2852890  42.9648440
  71.8221630  97.1980290  43.8444460  70.8859410  96.5219440  42.8655300
  86.2552450  95.7537270  45.9778910  86.0238540  95.5250020  45.0776860
  86.5157000  96.6736820  45.9323800  71.0064590  94.1961980  46.8706860
  70.1120640  94.1628740  47.2100570  71.5462140  94.3948770  47.6358110
  84.6940520  90.9793700  48.7558610  85.5710700  90.9877100  49.1392610
  84.7061360  90.2424540  48.1450960  69.6310740  94.1099250  34.3670430
  68.7274820  94.3729450  34.1922090  70.1151360  94.3810420  33.5870390
  86.1403790  94.8323240  39.6446630  86.6641270  94.3385890  39.0136800
  86.7263210  94.9673600  40.3894200  86.3193510  94.9163110  43.1666180
  85.3696220  94.8826650  43.2811170  86.5006520  95.8263220  42.9315950
  71.8212110  89.2204120  31.3167460  72.5440240  89.7613060  31.6348680
  72.0936630  88.9467540  30.4409000  85.6303760  94.0896590  35.5839040
  86.1262880  93.8567460  36.3687920  85.4319830  93.2508430  35.1676680
  87.0590920  92.7257540  38.1176720  86.9490200  92.5713580  39.0558990
  87.8198510  92.1978480  37.8752130  85.4056640  88.6651670  44.5759720
  86.0428860  89.2785810  44.9418910  85.5531530  88.7012330  43.6308950
  87.9481190  90.5565460  31.3582860  88.8730500  90.4246640  31.1501150
  87.9256980  90.6358280  32.3119310  88.0219680  91.3276120  33.9839570
  87.2271180  91.2621240  34.5132480  88.2262960  92.2626760  33.9724920
  78.7761120  89.8177860  47.4834820  78.7150010  90.4099690  48.2330230
  79.7161500  89.7103820  47.3385080  81.4135680  89.4747920  47.1227110
  82.0276090  89.7927210  46.4608190  81.9585240  88.9896510  47.7422970
  82.1543720  88.0380060  43.4496400  81.2803560  88.3715170  43.2469330
  82.0454470  87.5653240  44.2748270  83.0615700  90.2450930  44.8338120
  82.7329060  89.4302690  44.4539850  84.0098000  90.2020740  44.7103810
  79.9018540  88.9549900  42.3889310  79.1190330  89.4295400  42.6686070
  79.6081470  88.0504730  42.2802490  84.4539610  89.6573000  40.4338400
  84.8947700  89.6018100  39.5860000  84.1847200  90.5731010  40.5048580
  86.3178180  89.2888240  38.4447220  86.2566580  88.3449460  38.2978240
  87.0970210  89.3968330  38.9900680  71.2458950  89.2597380  34.9103030
  72.0038310  89.3726260  34.3367060  70.7836120  90.0966580  34.8646460
  77.7872760  91.3736650  37.9005340  76.9747270  90.9993540  37.5601220
  78.2914400  90.6181730  38.2026530  82.2897740  88.0379100  39.1388410
  82.8927110  88.6099310  39.6136930  81.5490730  88.6018540  38.9162310
  85.4332340  88.4400660  34.4128690  85.6282970  89.3384110  34.6796120
  84.6462210  88.2087740  34.9061640  73.6184100  89.7861430  33.4505000
  74.1476860  88.9991230  33.3212950  74.2512420  90.4652620  33.6840530
  75.8121940  89.5236570  36.5050390  75.1824680  88.8223880  36.6720520
  75.2727080  90.2840700  36.2883550  75.9377500  88.8020550  48.9402880
  75.6561770  89.3054150  48.1763700  76.3197200  88.0042300  48.5745010
  82.5392960  88.2174130  49.5183350  82.4258410  88.5368740  50.4134870
  83.3562700  88.6186640  49.2220630  81.4451110  96.2366600  19.8818090
  81.3645160  95.3221210  19.6109800  81.0315530  96.7333670  19.1757800
  79.5769150  98.0145620  21.7627360  78.8011250  97.5346060  22.0525930
  80.2282080  97.3351270  21.5883520  73.5934980  98.3265430  22.6403120
  72.7619860  98.0714140  23.0399630  74.2015960  98.3976200  23.3761040
  72.0026930  93.2867320  16.4245510  71.1143630  93.6283290  16.3225390
  72.2868120  93.0867640  15.5326340  69.9659940  95.8872970  22.3085210
  70.5376050  95.1195170  22.3088850  69.9661480  96.1861730  21.3991820
  71.2084810  91.2957330  24.0954140  71.0287650  90.3983080  24.3756900
  70.8064890  91.8429200  24.7701090  80.0483310  93.4973190  21.9966450
  80.4248130  92.6245070  21.8840120  79.9502820  93.8331890  21.1056890
  74.1788320  91.8698820  17.4583890  74.2855070  92.7702550  17.7652650
  73.2680680  91.8216790  17.1678540  83.8307430  90.9923630  18.9294790
  84.6517050  90.5020200  18.9720270  83.8641510  91.5821290  19.6826630
  71.8271480  93.7917830  22.7036480  72.5081590  94.0556200  23.3223880
  71.5119530  92.9518700  23.0374490  76.0196050  94.8385190  21.7909070
  76.5274270  95.3366160  22.4314090  76.5509290  94.0620390  21.6148430
  88.1206980  93.0090380  25.4938420  87.4159150  93.3972090  24.9753530
  88.3864900  93.7040670  26.0959350  74.3032150  89.4783750  26.0572490
  74.3050590  89.9956140  25.2518390  73.4736460  89.0013930  26.0342420
  84.0668910  92.9324010  21.7022330  83.3624480  93.2208900  22.2825440
  84.4281070  93.7424120  21.3421890  73.9847480  91.1893710  24.0642940
  74.3264290  92.0335760  23.7696810  73.0463290  91.3377450  24.1808280
  87.1355830  92.3778800  22.0931540  86.1880740  92.4117780  22.2246970
  87.4605820  93.1917750  22.4780900  77.6675370  88.6775980  20.3887530
  77.9750350  88.1222870  19.6723030  76.7376070  88.8120440  20.2060520
  80.0556130  96.7424810  17.1247650  79.1285410  96.6762190  17.3536120
  80.2080950  97.6804940  17.0102890  80.0425210  93.0141810  14.1214810
  79.1028880  93.1755770  14.2067270  80.3608470  93.7327490  13.5750800
  86.5637970  97.6960330  24.0993840  85.7356600  97.7653420  23.6243970
  87.1588450  98.2814640  23.6309670  84.0853420  98.3045110  17.6282900
  83.4665840  97.9664660  16.9809200  84.0677870  97.6604870  18.3362090
  83.5279980  94.4829650  25.0448710  83.1151160  95.3083360  25.2988700
  82.7955930  93.8974690  24.8525070  75.6612770  97.2689550  19.9067380
  75.2569770  96.5566800  19.4113280  75.7475890  96.9242790  20.7955420
  74.3741390  94.0432760  23.6866420  74.9255980  94.1528100  22.9119670
  74.8884900  94.4170360  24.4021650  82.2618120  97.5431920  14.6355650
  82.7011400  96.7054350  14.4893470  82.9746540  98.1761320  14.7219790
  74.0484120  97.5652120  27.2971760  73.9091890  98.4374920  27.6659160
  73.1665480  97.2224930  27.1519700  85.8435260  88.7974730  12.9496690
  85.5307920  88.8901560  13.8495760  86.6047730  89.3755760  12.8994120
  72.3617400  96.1634530  17.4074030  72.2415000  96.8896620  16.7955300
  72.0518290  95.3937440  16.9301940  87.0536550  93.5346230  28.9270830
  86.4380820  94.0425900  28.3986290  86.7332970  92.6344560  28.8696770
  74.8281060  89.5069600  20.7897700  74.3849210  90.2879140  20.4582220
  75.3866050  89.8299490  21.4968640  79.1150870  92.3738120  26.3933020
  78.6530240  92.5821140  27.2052960  78.7128980  91.5597470  26.0903690
  84.1155380  93.5947070  27.5229680  83.2648970  93.2952820  27.8438750
  83.9557170  93.8389080  26.6113500  81.2105090  95.0948820  29.6228470
  81.5358500  94.2612570  29.2830700  81.9985420  95.6177340  29.7706800
  77.9439880  89.1280300  15.6703530  77.3194060  89.1240170  16.3956840
  77.8570000  88.2611260  15.2739500  76.8656960  90.0516930  22.6487300
  77.1629290  90.9579760  22.5679320  77.4142520  89.5635710  22.0346870
  74.6195280  94.6303170  18.5178950  74.3936200  94.4140340  19.4225570
  73.8387810  95.0631630  18.1724920  81.8493040  94.6366540  17.1169600
  81.2501930  95.3602340  16.9333220  82.3972650  94.5743320  16.3346050
  77.0594490  95.5288750  29.1839220  76.9638090  94.5883480  29.0339620
  77.9026470  95.7503820  28.7887290  80.4557910  93.2730080  19.1472880
  80.8487480  93.5902280  18.3341570  80.8174760  92.3941960  19.2617400
  72.1905030  91.9402420  27.3373000  71.7968420  92.7877630  27.5445780
  71.5023430  91.3028790  27.5281640  78.7650080  92.0237390  30.4069740
  78.0748400  91.8309590  31.0415830  79.5082380  92.3072030  30.9394040
  69.4922080  89.8630880  21.3703080  69.2035130  90.4333740  22.0828060
  70.2367840  89.3835330  21.7334310  69.6792310  93.8051000  12.5805800
  69.5966980  94.7481760  12.7220790  69.3275370  93.6625910  11.7018150
  81.0413050  95.8635830  23.2423660  80.3094170  96.3722640  23.5913760
  80.6437390  95.0465810  22.9412440  77.4790440  92.5390030  21.6476150
  77.4826500  92.0979980  20.7980690  78.3741560  92.8607360  21.7547970
  73.3292820  92.4216520  20.6070360  72.9892870  92.8991750  21.3637410
  72.5670140  91.9681640  20.2471460  77.5410590  93.5402110  14.6382910
  77.6623410  93.4988590  15.5868730  77.1559100  94.4026260  14.4829640
  81.5038960  91.3169510  22.6546600  81.5211700  91.7678160  23.4988450
  81.2554540  90.4175150  22.8680040  76.5532090  95.8503250  14.0366210
  75.9848990  95.4021500  13.4102120  77.2621090  96.2096030  13.5031360
  84.9309710  88.7301690  28.4932980  85.2555480  87.9991350  29.0190960
  84.9666220  88.4115330  27.5913970  77.7798410  96.5991810  23.3941560
  78.1468540  96.1250380  24.1402900  77.5903470  97.4733380  23.7349900
  70.6438900  91.3435500  19.5235030  70.3585820  90.9791170  20.3613650
  70.5817760  90.6115960  18.9098170  75.5697780  95.6400450  25.7125770
  75.2654850  96.5192430  25.9376130  76.5244240  95.7000240  25.7483210
  80.3177490  90.2364760  16.2448400  79.5042100  89.7377930  16.1693710
  80.1239440  91.0763010  15.8284750  83.0325880  94.6084410  14.5410560
  83.9205500  94.9201640  14.3661900  83.0030970  93.7356660  14.1491140
  71.6261510  96.4803190  26.8597130  71.2676450  97.1457040  27.4470470
  71.3316070  95.6486740  27.2309750  74.8274630  96.9387430  29.7436680
  74.5274770  97.0844610  28.8464500  75.5985870  96.3792720  29.6510070
  85.3040150  95.9196250  14.0090420  85.2203870  96.3510470  13.1586860
  86.0234340  96.3794600  14.4417240  86.3814290  98.3763770  27.0860390
  85.6562480  98.9692550  26.8889780  86.9089750  98.3687310  26.2873760
  70.1369560  96.4794450  13.4831730  71.0064410  96.7619250  13.7667650
  69.6459880  97.2930320  13.3680540  77.3004370  97.8667660  17.6040010
  77.7567150  98.6772910  17.8300200  76.9492580  97.5490800  18.4358500
  73.2016150  88.2105310  18.0762530  73.0730780  88.2023210  19.0247450
  72.3778170  88.5488400  17.7253540  70.2010080  89.9696430  27.5369230
  69.4868600  90.1693350  28.1421840  70.6205120  89.1936000  27.9084030
  81.6948860  92.4618740  25.2870680  82.0629680  91.6413950  25.6150250
  80.8347060  92.5220630  25.7026330  85.0610890  91.4175680  16.0958240
  84.4324050  91.5221350  15.3816470  84.5662810  91.6372460  16.8852120
  77.0294920  93.6961630  17.5116120  76.3211070  94.1647970  17.9529730
  77.3139400  93.0383640  18.1461310  78.6550850  95.1158330  25.5108650
  79.1536100  95.5904150  26.1760500  78.7973800  94.1921850  25.7178680
  81.0610350  90.4212290  18.9511910  80.9378130  90.4398420  18.0021420
  82.0094910  90.4691230  19.0710310  75.2329940  92.0046710  14.8866830
  76.0820470  92.4416860  14.8207020  74.8661210  92.3166970  15.7138890
  85.8617710  91.3326290  26.3537040  85.3591310  92.0731690  26.6930850
  86.6774370  91.7210290  26.0373830  84.1539720  96.5759470  19.7998400
  83.2129860  96.5909700  19.9746090  84.4683790  95.7895430  20.2458700
  74.1321360  98.2579070  13.3602360  74.8984630  98.1460430  13.9227790
  74.2096050  97.5617040  12.7079130  72.8268120  95.6904140  14.0435250
  72.9071710  94.7431650  14.1552650  73.7187870  96.0211020  14.1495910
  70.3538920  97.5119060  29.2791420  70.8577940  96.9326340  29.8507650
  69.6146340  97.7959290  29.8167790  72.3862000  95.6548650  30.1741490
  72.4267340  95.3562520  31.0826720  73.2407500  96.0556260  30.0149010
  76.1640390  98.2544200  15.3345000  76.5856810  98.0884070  16.1776390
  76.2891230  97.4444430  14.8400140  74.3267810  94.2340750  28.1415980
  73.7964270  93.7431700  27.5139320  74.9955880  94.6624950  27.6073910
  78.6768030  97.2781810  12.5822100  79.1973690  96.5630830  12.2163250
  79.3236430  97.9167680  12.8822610  83.2245870  98.7010210  27.9057170
  83.6386890  98.8555290  28.7547590  82.2896870  98.8265430  28.0682950
  83.6968040  96.0406370  29.9096320  84.2788810  95.2858690  29.8216800
  83.8729810  96.5713810  29.1327800  74.8140110  91.2003120  28.2213270
  74.7196980  90.5823870  27.4964140  74.2337500  91.9269410  27.9943180
  77.5801550  89.7576360  25.2540660  77.1318850  89.7800620  24.4086210
  76.9466750  89.3595380  25.8510960  80.3225000  96.3846870  27.2590940
  80.4421210  95.7888010  27.9985780  81.1819000  96.4216560  26.8392240
  82.6612900  96.9384060  25.8353450  82.1348120  97.4626680  25.2318590
  83.0044240  97.5711450  26.4663180  75.0599290  94.3277430  12.2803160
  74.8588350  93.4644790  12.6416500  74.8891340  94.2410790  11.3424760
  77.0893770  92.9268220  28.5166760  77.6793460  92.6184070  29.2044580
  76.2714010  92.4547970  28.6726660  81.9087200  92.5434030  28.7499780
  81.2202720  91.8815570  28.6849770  82.6293220  92.0972300  29.1948240
  82.5387600  89.1385660  14.8090040  82.8189890  88.2953560  15.1649460
  81.7653330  89.3708770  15.3228790  73.8582090  91.4278050  12.2681040
  74.1607990  91.4345480  11.3600190  74.5976680  91.0775910  12.7648700
  77.0767020  90.3712670  13.2537240  76.7289020  89.6936660  12.6739690
  77.2779790  89.9102180  14.0680630  86.9168320  98.3762390  15.4193950
  87.6787230  98.9459040  15.5253640  86.9322690  97.8089590  16.1902260
  70.4172660  96.9000320  19.6501610  69.7621500  96.6311960  19.0061310
  71.2550610  96.7904800  19.2003590  83.3663100  91.6941610  13.8720100
  83.7847980  91.5072590  13.0316760  83.0599160  90.8420660  14.1823030
  86.8652830  96.6065750  17.5695900  86.4896430  95.8393680  17.1377190
  86.1355950  96.9888450  18.0570830  71.4548590  97.2852890  24.1904950
  71.8221630  97.1980290  25.0700970  70.8859410  96.5219440  24.0911810
  86.2552450  95.7537270  27.2035420  86.0238540  95.5250020  26.3033370
  86.5157000  96.6736820  27.1580310  71.0064590  94.1961980  28.0963370
  70.1120640  94.1628740  28.4357080  71.5462140  94.3948770  28.8614620
  84.6940520  90.9793700  29.9815120  85.5710700  90.9877100  30.3649120
  84.7061360  90.2424540  29.3707470  69.6310740  94.1099250  15.5926940
  68.7274820  94.3729450  15.4178600  70.1151360  94.3810420  14.8126900
  86.1403790  94.8323240  20.8703140  86.6641270  94.3385890  20.2393310
  86.7263210  94.9673600  21.6150710  86.3193510  94.9163110  24.3922690
  85.3696220  94.8826650  24.5067680  86.5006520  95.8263220  24.1572460
  72.1737950  93.1664790  13.5021320  72.8829650  92.7448010  13.0168600
  71.4577890  93.2340020  12.8704670  71.8212110  89.2204120  12.5423970
  72.5440240  89.7613060  12.8605190  72.0936630  88.9467540  11.6665510
  85.6303760  94.0896590  16.8095550  86.1262880  93.8567460  17.5944430
  85.4319830  93.2508430  16.3933190  71.5104300  88.4710310  22.4446590
  72.1580490  87.9207690  22.0041750  71.9306140  88.7253460  23.2662400
  87.0590920  92.7257540  19.3433230  86.9490200  92.5713580  20.2815500
  87.8198510  92.1978480  19.1008640  85.4056640  88.6651670  25.8016230
  86.0428860  89.2785810  26.1675420  85.5531530  88.7012330  24.8565460
  87.9481190  90.5565460  12.5839370  88.8730500  90.4246640  12.3757660
  87.9256980  90.6358280  13.5375820  88.0219680  91.3276120  15.2096080
  87.2271180  91.2621240  15.7388990  88.2262960  92.2626760  15.1981430
  71.2636300  88.6265980  25.1871910  70.9151120  89.0829800  25.9530090
  70.9324000  87.7323110  25.2694340  78.7761120  89.8177860  28.7091330
  78.7150010  90.4099690  29.4586740  79.7161500  89.7103820  28.5641590
  81.4135680  89.4747920  28.3483620  82.0276090  89.7927210  27.6864700
  81.9585240  88.9896510  28.9679480  71.9356940  88.1542180  28.4622680
  72.4839930  87.9730230  27.6988790  72.0012250  87.3636290  28.9978990
  82.1543720  88.0380060  24.6752910  81.2803560  88.3715170  24.4725840
  82.0454470  87.5653240  25.5004780  83.0615700  90.2450930  26.0594630
  82.7329060  89.4302690  25.6796360  84.0098000  90.2020740  25.9360320
  79.9018540  88.9549900  23.6145820  79.1190330  89.4295400  23.8942580
  79.6081470  88.0504730  23.5059000  84.4539610  89.6573000  21.6594910
  84.8947700  89.6018100  20.8116510  84.1847200  90.5731010  21.7305090
  86.3178180  89.2888240  19.6703730  86.2566580  88.3449460  19.5234750
  87.0970210  89.3968330  20.2157190  71.2458950  89.2597380  16.1359540
  72.0038310  89.3726260  15.5623570  70.7836120  90.0966580  16.0902970
  77.7872760  91.3736650  19.1261850  76.9747270  90.9993540  18.7857730
  78.2914400  90.6181730  19.4283040  82.2897740  88.0379100  20.3644920
  82.8927110  88.6099310  20.8393440  81.5490730  88.6018540  20.1418820
  85.4332340  88.4400660  15.6385200  85.6282970  89.3384110  15.9052630
  84.6462210  88.2087740  16.1318150  73.6184100  89.7861430  14.6761510
  74.1476860  88.9991230  14.5469460  74.2512420  90.4652620  14.9097040
  75.8121940  89.5236570  17.7306900  75.1824680  88.8223880  17.8977030
  75.2727080  90.2840700  17.5140060  75.9377500  88.8020550  30.1659390
  75.6561770  89.3054150  29.4020210  76.3197200  88.0042300  29.8001520
  82.5392960  88.2174130  30.7439860  82.4258410  88.5368740  31.6391380
  83.3562700  88.6186640  30.4477140  79.5769150  98.0145620   2.9883870
  78.8011250  97.5346060   3.2782440  80.2282080  97.3351270   2.8140030
  73.5934980  98.3265430   3.8659630  72.7619860  98.0714140   4.2656140
  74.2015960  98.3976200   4.6017550  69.9659940  95.8872970   3.5341720
  70.5376050  95.1195170   3.5345360  69.9661480  96.1861730   2.6248330
  71.2084810  91.2957330   5.3210650  71.0287650  90.3983080   5.6013410
  70.8064890  91.8429200   5.9957600  80.0483310  93.4973190   3.2222960
  80.4248130  92.6245070   3.1096630  79.9502820  93.8331890   2.3313400
  71.8271480  93.7917830   3.9292990  72.5081590  94.0556200   4.5480390
  71.5119530  92.9518700   4.2631000  76.0196050  94.8385190   3.0165580
  76.5274270  95.3366160   3.6570600  76.5509290  94.0620390   2.8404940
  88.1206980  93.0090380   6.7194930  87.4159150  93.3972090   6.2010040
  88.3864900  93.7040670   7.3215860  74.3032150  89.4783750   7.2829000
  74.3050590  89.9956140   6.4774900  73.4736460  89.0013930   7.2598930
  84.0668910  92.9324010   2.9278840  83.3624480  93.2208900   3.5081950
  84.4281070  93.7424120   2.5678400  73.9847480  91.1893710   5.2899450
  74.3264290  92.0335760   4.9953320  73.0463290  91.3377450   5.4064790
  87.1355830  92.3778800   3.3188050  86.1880740  92.4117780   3.4503480
  87.4605820  93.1917750   3.7037410  86.5637970  97.6960330   5.3250350
  85.7356600  97.7653420   4.8500480  87.1588450  98.2814640   4.8566180
  83.5279980  94.4829650   6.2705220  83.1151160  95.3083360   6.5245210
  82.7955930  93.8974690   6.0781580  74.3741390  94.0432760   4.9122930
  74.9255980  94.1528100   4.1376180  74.8884900  94.4170360   5.6278160
  74.0484120  97.5652120   8.5228270  73.9091890  98.4374920   8.8915670
  73.1665480  97.2224930   8.3776210  87.0536550  93.5346230  10.1527340
  86.4380820  94.0425900   9.6242800  86.7332970  92.6344560  10.0953280
  74.8281060  89.5069600   2.0154210  74.3849210  90.2879140   1.6838730
  75.3866050  89.8299490   2.7225150  79.1150870  92.3738120   7.6189530
  78.6530240  92.5821140   8.4309470  78.7128980  91.5597470   7.3160200
  84.1155380  93.5947070   8.7486190  83.2648970  93.2952820   9.0695260
  83.9557170  93.8389080   7.8370010  81.2105090  95.0948820  10.8484980
  81.5358500  94.2612570  10.5087210  81.9985420  95.6177340  10.9963310
  76.8656960  90.0516930   3.8743810  77.1629290  90.9579760   3.7935830
  77.4142520  89.5635710   3.2603380  77.0594490  95.5288750  10.4095730
  76.9638090  94.5883480  10.2596130  77.9026470  95.7503820  10.0143800
  72.1905030  91.9402420   8.5629510  71.7968420  92.7877630   8.7702290
  71.5023430  91.3028790   8.7538150  78.7650080  92.0237390  11.6326250
  78.0748400  91.8309590  12.2672340  79.5082380  92.3072030  12.1650550
  69.4922080  89.8630880   2.5959590  69.2035130  90.4333740   3.3084570
  70.2367840  89.3835330   2.9590820  81.0413050  95.8635830   4.4680170
  80.3094170  96.3722640   4.8170270  80.6437390  95.0465810   4.1668950
  77.4790440  92.5390030   2.8732660  77.4826500  92.0979980   2.0237200
  78.3741560  92.8607360   2.9804480  73.3292820  92.4216520   1.8326870
  72.9892870  92.8991750   2.5893920  72.5670140  91.9681640   1.4727970
  81.5038960  91.3169510   3.8803110  81.5211700  91.7678160   4.7244960
  81.2554540  90.4175150   4.0936550  84.9309710  88.7301690   9.7189490
  85.2555480  87.9991350  10.2447470  84.9666220  88.4115330   8.8170480
  77.7798410  96.5991810   4.6198070  78.1468540  96.1250380   5.3659410
  77.5903470  97.4733380   4.9606410  75.5697780  95.6400450   6.9382280
  75.2654850  96.5192430   7.1632640  76.5244240  95.7000240   6.9739720
  71.6261510  96.4803190   8.0853640  71.2676450  97.1457040   8.6726980
  71.3316070  95.6486740   8.4566260  74.8274630  96.9387430  10.9693190
  74.5274770  97.0844610  10.0721010  75.5985870  96.3792720  10.8766580
  86.3814290  98.3763770   8.3116900  85.6562480  98.9692550   8.1146290
  86.9089750  98.3687310   7.5130270  70.2010080  89.9696430   8.7625740
  69.4868600  90.1693350   9.3678350  70.6205120  89.1936000   9.1340540
  81.6948860  92.4618740   6.5127190  82.0629680  91.6413950   6.8406760
  80.8347060  92.5220630   6.9282840  78.6550850  95.1158330   6.7365160
  79.1536100  95.5904150   7.4017010  78.7973800  94.1921850   6.9435190
  85.8617710  91.3326290   7.5793550  85.3591310  92.0731690   7.9187360
  86.6774370  91.7210290   7.2630340  70.3538920  97.5119060  10.5047930
  70.8577940  96.9326340  11.0764160  69.6146340  97.7959290  11.0424300
  72.3862000  95.6548650  11.3998000  72.4267340  95.3562520  12.3083230
  73.2407500  96.0556260  11.2405520  74.3267810  94.2340750   9.3672490
  73.7964270  93.7431700   8.7395830  74.9955880  94.6624950   8.8330420
  83.2245870  98.7010210   9.1313680  83.6386890  98.8555290   9.9804100
  82.2896870  98.8265430   9.2939460  83.6968040  96.0406370  11.1352830
  84.2788810  95.2858690  11.0473310  83.8729810  96.5713810  10.3584310
  74.8140110  91.2003120   9.4469780  74.7196980  90.5823870   8.7220650
  74.2337500  91.9269410   9.2199690  77.5801550  89.7576360   6.4797170
  77.1318850  89.7800620   5.6342720  76.9466750  89.3595380   7.0767470
  80.3225000  96.3846870   8.4847450  80.4421210  95.7888010   9.2242290
  81.1819000  96.4216560   8.0648750  82.6612900  96.9384060   7.0609960
  82.1348120  97.4626680   6.4575100  83.0044240  97.5711450   7.6919690
  77.0893770  92.9268220   9.7423270  77.6793460  92.6184070  10.4301090
  76.2714010  92.4547970   9.8983170  81.9087200  92.5434030   9.9756290
  81.2202720  91.8815570   9.9106280  82.6293220  92.0972300  10.4204750
  71.4548590  97.2852890   5.4161460  71.8221630  97.1980290   6.2957480
  70.8859410  96.5219440   5.3168320  86.2552450  95.7537270   8.4291930
  86.0238540  95.5250020   7.5289880  86.5157000  96.6736820   8.3836820
  71.0064590  94.1961980   9.3219880  70.1120640  94.1628740   9.6613590
  71.5462140  94.3948770  10.0871130  84.6940520  90.9793700  11.2071630
  85.5710700  90.9877100  11.5905630  84.7061360  90.2424540  10.5963980
  86.1403790  94.8323240   2.0959650  86.6641270  94.3385890   1.4649820
  86.7263210  94.9673600   2.8407220  86.3193510  94.9163110   5.6179200
  85.3696220  94.8826650   5.7324190  86.5006520  95.8263220   5.3828970
  71.5104300  88.4710310   3.6703100  72.1580490  87.9207690   3.2298260
  71.9306140  88.7253460   4.4918910  85.4056640  88.6651670   7.0272740
  86.0428860  89.2785810   7.3931930  85.5531530  88.7012330   6.0821970
  71.2636300  88.6265980   6.4128420  70.9151120  89.0829800   7.1786600
  70.9324000  87.7323110   6.4950850  78.7761120  89.8177860   9.9347840
  78.7150010  90.4099690  10.6843250  79.7161500  89.7103820   9.7898100
  81.4135680  89.4747920   9.5740130  82.0276090  89.7927210   8.9121210
  81.9585240  88.9896510  10.1935990  71.9356940  88.1542180   9.6879190
  72.4839930  87.9730230   8.9245300  72.0012250  87.3636290  10.2235500
  82.1543720  88.0380060   5.9009420  81.2803560  88.3715170   5.6982350
  82.0454470  87.5653240   6.7261290  83.0615700  90.2450930   7.2851140
  82.7329060  89.4302690   6.9052870  84.0098000  90.2020740   7.1616830
  79.9018540  88.9549900   4.8402330  79.1190330  89.4295400   5.1199090
  79.6081470  88.0504730   4.7315510  84.4539610  89.6573000   2.8851420
  84.8947700  89.6018100   2.0373020  84.1847200  90.5731010   2.9561600
  75.9377500  88.8020550  11.3915900  75.6561770  89.3054150  10.6276720
  76.3197200  88.0042300  11.0258030  82.5392960  88.2174130  11.9696370
  82.4258410  88.5368740  12.8647890  83.3562700  88.6186640  11.6733650
  81.4451110  77.4623110  57.4305070  81.3645160  76.5477720  57.1596780
  81.0315530  77.9590180  56.7244780  79.5769150  79.2402130  59.3114340
  78.8011250  78.7602570  59.6012910  80.2282080  78.5607780  59.1370500
  83.5976580  83.6462320  58.0913470  83.1358110  82.8749560  58.4200640
  84.4102130  83.6728390  58.5965920  72.0026930  74.5123830  53.9732490
  71.1143630  74.8539800  53.8712370  72.2868120  74.3124150  53.0813320
  69.9659940  77.1129480  59.8572190  70.5376050  76.3451680  59.8575830
  69.9661480  77.4118240  58.9478800  79.8239890  85.9320330  57.7117460
  79.2051330  86.3877830  57.1411900  80.6791670  86.0871790  57.3107160
  79.0178140  81.9159320  59.3184500  78.9486420  80.9749260  59.1573630
  79.7798000  82.0060730  59.8907070  80.0483310  74.7229700  59.5453430
  80.4248130  73.8501580  59.4327100  79.9502820  75.0588400  58.6543870
  74.1788320  73.0955330  55.0070870  74.2855070  73.9959060  55.3139630
  73.2680680  73.0473300  54.7165520  83.8307430  72.2180140  56.4781770
  84.6517050  71.7276710  56.5207250  83.8641510  72.8077800  57.2313610
  76.0196050  76.0641700  59.3396050  76.5274270  76.5622670  59.9801070
  76.5509290  75.2876900  59.1635410  80.6903240  80.8159570  55.1049370
  80.0720510  81.2809020  54.5412090  81.2026490  81.5087050  55.5218880
  84.0668910  74.1580520  59.2509310  83.3624480  74.4465410  59.8312420
  84.4281070  74.9680630  58.8908870  70.0586440  81.5016100  52.4789000
  69.6814420  81.9903200  51.7473900  70.3159510  82.1741380  53.1095530
  87.1355830  73.6035310  59.6418520  86.1880740  73.6374290  59.7733950
  87.4605820  74.4174260  60.0267880  77.6675370  69.9032490  57.9374510
  77.9750350  69.3479380  57.2210010  76.7376070  70.0376950  57.7547500
  83.2190430  85.6199780  60.2281970  83.2317590  85.2162070  59.3604230
  82.6665650  86.3947070  60.1243400  84.5135850  82.3416000  55.3172140
  84.4032180  81.3990330  55.4421560  84.5104100  82.7031640  56.2034900
  80.0556130  77.9681320  54.6734630  79.1285410  77.9018700  54.9023100
  80.2080950  78.9061450  54.5589870  80.0425210  74.2398320  51.6701790
  79.1028880  74.4012280  51.7554250  80.3608470  74.9584000  51.1237780
  84.0853420  79.5301620  55.1769880  83.4665840  79.1921170  54.5296180
  84.0677870  78.8861380  55.8849070  75.6612770  78.4946060  57.4554360
  75.2569770  77.7823310  56.9600260  75.7475890  78.1499300  58.3442400
  76.1294470  82.1813620  59.6193570  75.8322760  81.5759090  58.9401350
  77.0794290  82.2190930  59.5082930  82.2618120  78.7688430  52.1842630
  82.7011400  77.9310860  52.0380450  82.9746540  79.4017830  52.2706770
  80.3713500  83.7084500  56.1523870  80.8109410  84.4508830  55.7379260
  80.3100390  83.9511070  57.0762830  85.8435260  70.0231240  50.4983670
  85.5307920  70.1158070  51.3982740  86.6047730  70.6012270  50.4481100
  72.3617400  77.3891040  54.9561010  72.2415000  78.1153130  54.3442280
  72.0518290  76.6193950  54.4788920  71.2450400  82.2606370  57.1735830
  70.8378480  82.4020960  56.3189430  72.1363410  81.9766530  56.9707040
  83.0383680  86.6953620  53.5086880  82.8784820  86.4056560  54.4068710
  82.8730390  85.9193750  52.9732110  75.5172060  86.4752150  55.2858500
  75.3414540  85.5587690  55.0726300  74.6627800  86.8339440  55.5256300
  82.7409810  84.2041180  52.0684880  82.0474970  84.2018470  51.4087160
  83.4832670  83.7800500  51.6379050  82.3059740  85.8303890  56.1433370
  82.7616690  85.0493270  56.4571990  82.6452260  86.5410710  56.6874550
  74.8281060  70.7326110  58.3384680  74.3849210  71.5135650  58.0069200
  75.3866050  71.0556000  59.0455620  77.9439880  70.3536810  53.2190510
  77.3194060  70.3496680  53.9443820  77.8570000  69.4867770  52.8226480
  76.8656960  71.2773440  60.1974280  77.1629290  72.1836270  60.1166300
  77.4142520  70.7892220  59.5833850  74.6195280  75.8559680  56.0665930
  74.3936200  75.6396850  56.9712550  73.8387810  76.2888140  55.7211900
  81.8493040  75.8623050  54.6656580  81.2501930  76.5858850  54.4820200
  82.3972650  75.7999830  53.8833030  80.4557910  74.4986590  56.6959860
  80.8487480  74.8158790  55.8828550  80.8174760  73.6198470  56.8104380
  69.4922080  71.0887390  58.9190060  69.2035130  71.6590250  59.6315040
  70.2367840  70.6091840  59.2821290  69.6792310  75.0307510  50.1292780
  69.5966980  75.9738270  50.2707770  69.3275370  74.8882420  49.2505130
  77.4790440  73.7646540  59.1963130  77.4826500  73.3236490  58.3467670
  78.3741560  74.0863870  59.3034950  73.3292820  73.6473030  58.1557340
  72.9892870  74.1248260  58.9124390  72.5670140  73.1938150  57.7958440
  77.5410590  74.7658620  52.1869890  77.6623410  74.7245100  53.1355710
  77.1559100  75.6282770  52.0316620  76.5532090  77.0759760  51.5853190
  75.9848990  76.6278010  50.9589100  77.2621090  77.4352540  51.0518340
  70.6438900  72.5692010  57.0722010  70.3585820  72.2047680  57.9100630
  70.5817760  71.8372470  56.4585150  74.0979570  81.0717950  53.8579600
  73.3241830  80.5315570  53.6978320  74.8274200  80.5524560  53.5197360
  84.8567550  80.0683310  59.6505990  85.5766670  80.5638600  59.2602100
  84.6549370  79.3901200  59.0059860  80.3177490  71.4621270  53.7935380
  79.5042100  70.9634440  53.7180690  80.1239440  72.3019520  53.3771730
  83.0325880  75.8340920  52.0897540  83.9205500  76.1458150  51.9148880
  83.0030970  74.9613170  51.6978120  74.1416970  80.7398330  57.4958410
  74.6595640  79.9366590  57.4415300  73.6900990  80.6777470  58.3375240
  79.0286470  82.0064610  52.7685710  79.3702170  82.7506840  52.2729030
  78.1999180  82.3195730  53.1310540  85.3040150  77.1452760  51.5577400
  85.2203870  77.5766980  50.7073840  86.0234340  77.6051110  51.9904220
  86.3327400  83.9995020  54.2859530  85.6903560  83.3450640  54.5603250
  85.9458060  84.4050110  53.5100200  81.9113880  81.3280450  58.1331220
  82.2637700  80.7308580  57.4732590  81.0276210  81.0024680  58.3039470
  77.9977160  82.0878140  55.5401630  78.6848290  82.6347350  55.9209220
  77.2109580  82.6318870  55.5751240  70.1369560  77.7050960  51.0318710
  71.0064410  77.9875760  51.3154630  69.6459880  78.5186830  50.9167520
  77.3004370  79.0924170  55.1526990  77.7567150  79.9029420  55.3787180
  76.9492580  78.7747310  55.9845480  73.2016150  69.4361820  55.6249510
  73.0730780  69.4279720  56.5734430  72.3778170  69.7744910  55.2740520
  84.7224780  82.8911480  50.8235880  84.4962360  82.1741920  51.4160520
  84.3320980  82.6423920  49.9857630  70.5040810  86.9178340  51.5980340
  70.8638450  87.5167680  50.9437610  70.3633150  87.4638230  52.3715370
  84.3041030  80.8083420  52.4850040  84.0162730  81.2696110  53.2727920
  85.0993200  80.3481190  52.7534260  76.5209430  84.3009540  52.4154010
  76.5119530  85.0339230  51.7998520  75.6007790  84.0541120  52.5080970
  72.1216070  79.5224430  53.1600770  71.5144020  80.2623330  53.1696070
  72.5965420  79.6123790  52.3338970  85.0610890  72.6432190  53.6445220
  84.4324050  72.7477860  52.9303450  84.5662810  72.8628970  54.4339100
  79.5069030  84.3637780  51.0779200  79.6081010  84.1601770  50.1481180
  78.6070770  84.1096060  51.2826980  77.0294920  74.9218140  55.0603100
  76.3211070  75.3904480  55.5016710  77.3139400  74.2640150  55.6948290
  81.0610350  71.6468800  56.4998890  80.9378130  71.6654930  55.5508400
  82.0094910  71.6947740  56.6197290  78.1487140  86.8824100  55.7726870
  78.4028640  86.8445490  54.8506240  77.1999620  86.7557430  55.7655120
  75.2329940  73.2303220  52.4353810  76.0820470  73.6673370  52.3694000
  74.8661210  73.5423480  53.2625870  84.1539720  77.8015980  57.3485380
  83.2129860  77.8166210  57.5233070  84.4683790  77.0151940  57.7945680
  74.1321360  79.4835580  50.9089340  74.8984630  79.3716940  51.4714770
  74.2096050  78.7873550  50.2566110  72.8268120  76.9160650  51.5922230
  72.9071710  75.9688160  51.7039630  73.7187870  77.2467530  51.6982890
  86.1565300  84.9724830  59.0239640  86.2812720  85.7956000  59.4963450
  87.0230860  84.7615560  58.6763790  73.6282830  87.0656040  58.6956770
  74.3645310  86.5171500  58.9665340  74.0123750  87.9312050  58.5562760
  70.5128310  83.1329610  54.5698280  69.5868090  83.3750750  54.5603690
  70.9784740  83.9603870  54.4483030  76.7385140  86.2386350  50.5182340
  77.5313750  86.5275180  50.0664130  76.2189490  85.8078520  49.8394820
  85.7915310  85.4656480  51.9419080  85.5056820  85.0521620  51.1273260
  85.5934860  86.3944190  51.8219600  77.2562540  81.4589760  50.3824690
  77.1513180  80.8442110  51.1086070  77.0886760  80.9355650  49.5987700
  80.4965270  80.5209790  50.9866680  79.9475370  80.9679090  51.6309420
  81.1184530  80.0159040  51.5104350  76.1640390  79.4800710  52.8831980
  76.5856810  79.3140580  53.7263370  76.2891230  78.6700940  52.3887120
  78.6768030  78.5038320  50.1309080  79.1973690  77.7887340  49.7650230
  79.3236430  79.1424190  50.4309590  75.0599290  75.5533940  49.8290140
  74.8588350  74.6901300  50.1903480  74.8891340  75.4667300  48.8911740
  82.5387600  70.3642170  52.3577020  82.8189890  69.5210070  52.7136440
  81.7653330  70.5965280  52.8715770  73.8582090  72.6534560  49.8168020
  74.1607990  72.6601990  48.9087170  74.5976680  72.3032420  50.3135680
  77.0767020  71.5969180  50.8024220  76.7289020  70.9193170  50.2226670
  77.2779790  71.1358690  51.6167610  79.2416060  86.5849930  52.4210820
  80.1366850  86.9234900  52.4429580  79.2733690  85.8629340  51.7935100
  72.8812220  81.9576980  50.6497820  73.3187090  82.5006650  51.3055400
  73.3659950  81.1323930  50.6594160  70.0958020  84.7466010  58.1018080
  70.4261030  83.8787070  57.8696720  70.5249020  84.9524530  58.9323040
  74.6919940  83.0775020  55.7620050  74.3915480  82.9539990  56.6623960
  74.5857430  82.2183610  55.3535780  87.4611860  82.8571420  50.4646730
  86.6304820  82.9248070  50.9353960  87.6383690  83.7475540  50.1613590
  86.9168320  79.6018900  52.9680930  87.6787230  80.1715550  53.0740620
  86.9322690  79.0346100  53.7389240  70.4172660  78.1256830  57.1988590
  69.7621500  77.8568470  56.5548290  71.2550610  78.0161310  56.7490570
  87.9228290  80.4569000  57.8122860  88.2937120  79.6736320  57.4058830
  88.5630220  81.1458100  57.6340160  86.9687490  79.8953270  50.1253450
  87.2436330  80.8032150  49.9972670  86.7798230  79.8315800  51.0615440
  83.3663100  72.9198120  51.4207080  83.7847980  72.7329100  50.5803740
  83.0599160  72.0677170  51.7310010  86.8652830  77.8322260  55.1182880
  86.4896430  77.0650190  54.6864170  86.1355950  78.2144960  55.6057810
  69.6310740  75.3355760  53.1413920  68.7274820  75.5985960  52.9665580
  70.1151360  75.6066930  52.3613880  86.1403790  76.0579750  58.4190120
  86.6641270  75.5642400  57.7880290  86.7263210  76.1930110  59.1637690
  72.1737950  74.3921300  51.0508300  72.8829650  73.9704520  50.5655580
  71.4577890  74.4596530  50.4191650  71.8212110  70.4460630  50.0910950
  72.5440240  70.9869570  50.4092170  72.0936630  70.1724050  49.2152490
  85.6303760  75.3153100  54.3582530  86.1262880  75.0823970  55.1431410
  85.4319830  74.4764940  53.9420170  87.0590920  73.9514050  56.8920210
  86.9490200  73.7970090  57.8302480  87.8198510  73.4234990  56.6495620
  87.9481190  71.7821970  50.1326350  88.8730500  71.6503150  49.9244640
  87.9256980  71.8614790  51.0862800  88.0219680  72.5532630  52.7583060
  87.2271180  72.4877750  53.2875970  88.2262960  73.4883270  52.7468410
  84.9638100  86.5924180  56.7521450  85.5597170  86.2708750  56.0755870
  85.2216250  86.1196000  57.5434720  75.9446030  85.5507720  59.7567310
  76.4611050  84.9395080  59.2315570  76.5943410  86.0536500  60.2478320
  84.4539610  70.8829510  59.2081890  84.8947700  70.8274610  58.3603490
  84.1847200  71.7987520  59.2792070  86.3178180  70.5144750  57.2190710
  86.2566580  69.5705970  57.0721730  87.0970210  70.6224840  57.7644170
  70.6230930  86.6537110  56.1814660  70.4552970  86.0207790  56.8796550
  69.7565440  86.8596510  55.8308850  71.2458950  70.4853890  53.6846520
  72.0038310  70.5982770  53.1110550  70.7836120  71.3223090  53.6389950
  77.7872760  72.5993160  56.6748830  76.9747270  72.2250050  56.3344710
  78.2914400  71.8438240  56.9770020  82.2897740  69.2635610  57.9131900
  82.8927110  69.8355820  58.3880420  81.5490730  69.8275050  57.6905800
  85.4332340  69.6657170  53.1872180  85.6282970  70.5640620  53.4539610
  84.6462210  69.4344250  53.6805130  72.2293630  85.3470340  53.6264800
  71.7041250  85.7278370  52.9226760  72.1538210  85.9721110  54.3474510
  73.6184100  71.0117940  52.2248490  74.1476860  70.2247740  52.0956440
  74.2512420  71.6909130  52.4584020  75.8121940  70.7493080  55.2793880
  75.1824680  70.0480390  55.4464010  75.2727080  71.5097210  55.0627040
  86.9858950  86.9057880  54.9478740  87.1611140  86.2195620  54.3039660
  86.2880520  87.4304930  54.5555410  74.8286600  87.2952720  52.5014050
  75.5605420  87.0112000  51.9537940  75.0880270  87.0566000  53.3913430
  73.9901390  83.4117450  52.5060380  73.3610270  83.8802550  53.0546210
  74.1049220  82.5666670  52.9406570  81.4451110  77.4623110  38.6561580
  81.3645160  76.5477720  38.3853290  81.0315530  77.9590180  37.9501290
  79.5769150  79.2402130  40.5370850  78.8011250  78.7602570  40.8269420
  80.2282080  78.5607780  40.3627010  83.5976580  83.6462320  39.3169980
  83.1358110  82.8749560  39.6457150  84.4102130  83.6728390  39.8222430
  72.0026930  74.5123830  35.1989000  71.1143630  74.8539800  35.0968880
  72.2868120  74.3124150  34.3069830  79.8239890  85.9320330  38.9373970
  79.2051330  86.3877830  38.3668410  80.6791670  86.0871790  38.5363670
  79.0178140  81.9159320  40.5441010  78.9486420  80.9749260  40.3830140
  79.7798000  82.0060730  41.1163580  74.1788320  73.0955330  36.2327380
  74.2855070  73.9959060  36.5396140  73.2680680  73.0473300  35.9422030
  83.8307430  72.2180140  37.7038280  84.6517050  71.7276710  37.7463760
  83.8641510  72.8077800  38.4570120  88.1206980  74.2346890  44.2681910
  87.4159150  74.6228600  43.7497020  88.3864900  74.9297180  44.8702840
  80.6903240  80.8159570  36.3305880  80.0720510  81.2809020  35.7668600
  81.2026490  81.5087050  36.7475390  70.0586440  81.5016100  33.7045510
  69.6814420  81.9903200  32.9730410  70.3159510  82.1741380  34.3352040
  85.6831690  83.7755650  42.7393300  84.9995210  84.4454760  42.7309970
  86.2225980  83.9736300  41.9738160  83.2190430  85.6199780  41.4538480
  83.2317590  85.2162070  40.5860740  82.6665650  86.3947070  41.3499910
  84.5135850  82.3416000  36.5428650  84.4032180  81.3990330  36.6678070
  84.5104100  82.7031640  37.4291410  82.6175870  80.5229620  42.7821090
  83.0344660  80.3089730  41.9474550  83.3415690  80.7802410  43.3529710
  80.0556130  77.9681320  35.8991140  79.1285410  77.9018700  36.1279610
  80.2080950  78.9061450  35.7846380  80.0425210  74.2398320  32.8958300
  79.1028880  74.4012280  32.9810760  80.3608470  74.9584000  32.3494290
  86.5637970  78.9216840  42.8737330  85.7356600  78.9909930  42.3987460
  87.1588450  79.5071150  42.4053160  84.0853420  79.5301620  36.4026390
  83.4665840  79.1921170  35.7552690  84.0677870  78.8861380  37.1105580
  83.5279980  75.7086160  43.8192200  83.1151160  76.5339870  44.0732190
  82.7955930  75.1231200  43.6268560  75.6612770  78.4946060  38.6810870
  75.2569770  77.7823310  38.1856770  75.7475890  78.1499300  39.5698910
  84.2180080  85.7545490  44.5073180  83.7410640  86.5617680  44.3145790
  83.5341870  85.1023820  44.6599390  75.2212900  81.9195310  47.4957880
  74.3241430  82.1435280  47.7431280  75.2465770  82.0430250  46.5469280
  82.2618120  78.7688430  33.4099140  82.7011400  77.9310860  33.2636960
  82.9746540  79.4017830  33.4963280  80.3713500  83.7084500  37.3780380
  80.8109410  84.4508830  36.9635770  80.3100390  83.9511070  38.3019340
  75.8464470  84.7330330  48.2800400  75.8179900  85.1373280  47.4128830
  75.6829440  83.8040690  48.1172000  85.8435260  70.0231240  31.7240180
  85.5307920  70.1158070  32.6239250  86.6047730  70.6012270  31.6737610
  72.3617400  77.3891040  36.1817520  72.2415000  78.1153130  35.5698790
  72.0518290  76.6193950  35.7045430  87.7979290  85.5157430  49.5764570
  88.2739010  85.9940320  50.2553650  88.4186450  85.4474920  48.8510070
  71.2450400  82.2606370  38.3992340  70.8378480  82.4020960  37.5445940
  72.1363410  81.9766530  38.1963550  87.2012540  82.7070280  46.7364580
  87.3275600  82.4682160  45.8181760  87.2433920  81.8754820  47.2086660
  81.0629280  86.4098280  45.3059390  81.5773950  86.3206290  46.1081820
  80.2198360  86.7557980  45.5987300  83.0383680  86.6953620  34.7343390
  82.8784820  86.4056560  35.6325220  82.8730390  85.9193750  34.1988620
  75.5172060  86.4752150  36.5115010  75.3414540  85.5587690  36.2982810
  74.6627800  86.8339440  36.7512810  82.7409810  84.2041180  33.2941390
  82.0474970  84.2018470  32.6343670  83.4832670  83.7800500  32.8635560
  82.3059740  85.8303890  37.3689880  82.7616690  85.0493270  37.6828500
  82.6452260  86.5410710  37.9131060  87.0536550  74.7602740  47.7014320
  86.4380820  75.2682410  47.1729780  86.7332970  73.8601070  47.6440260
  84.1155380  74.8203580  46.2973170  83.2648970  74.5209330  46.6182240
  83.9557170  75.0645590  45.3856990  81.2105090  76.3205330  48.3971960
  81.5358500  75.4869080  48.0574190  81.9985420  76.8433850  48.5450290
  77.9439880  70.3536810  34.4447020  77.3194060  70.3496680  35.1700330
  77.8570000  69.4867770  34.0482990  81.8493040  75.8623050  35.8913090
  81.2501930  76.5858850  35.7076710  82.3972650  75.7999830  35.1089540
  77.0594490  76.7545260  47.9582710  76.9638090  75.8139990  47.8083110
  77.9026470  76.9760330  47.5630780  80.4557910  74.4986590  37.9216370
  80.8487480  74.8158790  37.1085060  80.8174760  73.6198470  38.0360890
  78.7650080  73.2493900  49.1813230  78.0748400  73.0566100  49.8159320
  79.5082380  73.5328540  49.7137530  69.6792310  75.0307510  31.3549290
  69.5966980  75.9738270  31.4964280  69.3275370  74.8882420  30.4761640
  77.5410590  74.7658620  33.4126400  77.6623410  74.7245100  34.3612220
  77.1559100  75.6282770  33.2573130  76.5532090  77.0759760  32.8109700
  75.9848990  76.6278010  32.1845610  77.2621090  77.4352540  32.2774850
  84.9309710  69.9558200  47.2676470  85.2555480  69.2247860  47.7934450
  84.9666220  69.6371840  46.3657460  70.6438900  72.5692010  38.2978520
  70.3585820  72.2047680  39.1357140  70.5817760  71.8372470  37.6841660
  74.0979570  81.0717950  35.0836110  73.3241830  80.5315570  34.9234830
  74.8274200  80.5524560  34.7453870  84.8567550  80.0683310  40.8762500
  85.5766670  80.5638600  40.4858610  84.6549370  79.3901200  40.2316370
  80.3177490  71.4621270  35.0191890  79.5042100  70.9634440  34.9437200
  80.1239440  72.3019520  34.6028240  80.2386350  80.1392370  46.7631500
  80.1723660  79.2188040  46.5089090  79.6091490  80.2367810  47.4776140
  83.0325880  75.8340920  33.3154050  83.9205500  76.1458150  33.1405390
  83.0030970  74.9613170  32.9234630  79.0286470  82.0064610  33.9942220
  79.3702170  82.7506840  33.4985540  78.1999180  82.3195730  34.3567050
  80.1703080  82.9612940  46.5135300  80.1847620  82.0293900  46.2954210
  79.4628180  83.0472700  47.1525070  85.3040150  77.1452760  32.7833910
  85.2203870  77.5766980  31.9330350  86.0234340  77.6051110  33.2160730
  86.3814290  79.6020280  45.8603880  85.6562480  80.1949060  45.6633270
  86.9089750  79.5943820  45.0617250  86.3327400  83.9995020  35.5116040
  85.6903560  83.3450640  35.7859760  85.9458060  84.4050110  34.7356710
  81.9113880  81.3280450  39.3587730  82.2637700  80.7308580  38.6989100
  81.0276210  81.0024680  39.5295980  77.9977160  82.0878140  36.7658140
  78.6848290  82.6347350  37.1465730  77.2109580  82.6318870  36.8007750
  70.1369560  77.7050960  32.2575220  71.0064410  77.9875760  32.5411140
  69.6459880  78.5186830  32.1424030  77.3004370  79.0924170  36.3783500
  77.7567150  79.9029420  36.6043690  76.9492580  78.7747310  37.2101990
  79.6036980  84.6030510  43.6075800  80.2479200  84.8089890  44.2849220
  79.9666420  83.8418910  43.1546650  73.2016150  69.4361820  36.8506020
  73.0730780  69.4279720  37.7990940  72.3778170  69.7744910  36.4997030
  80.8769060  82.6062860  42.3253250  81.5191290  81.9056020  42.4385420
  81.4018410  83.3861300  42.1450140  84.7224780  82.8911480  32.0492390
  84.4962360  82.1741920  32.6417030  84.3320980  82.6423920  31.2114140
  82.6506680  83.4057760  45.5289310  82.9862920  83.9924450  46.2067230
  81.7307020  83.2750470  45.7587100  70.5040810  86.9178340  32.8236850
  70.8638450  87.5167680  32.1694120  70.3633150  87.4638230  33.5971880
  84.3041030  80.8083420  33.7106550  84.0162730  81.2696110  34.4984430
  85.0993200  80.3481190  33.9790770  78.4795260  83.4549090  48.6977370
  78.1592130  82.7358330  49.2423060  77.8053620  84.1304160  48.7713430
  76.5209430  84.3009540  33.6410520  76.5119530  85.0339230  33.0255030
  75.6007790  84.0541120  33.7337480  72.1216070  79.5224430  34.3857280
  71.5144020  80.2623330  34.3952580  72.5965420  79.6123790  33.5595480
  85.0610890  72.6432190  34.8701730  84.4324050  72.7477860  34.1559960
  84.5662810  72.8628970  35.6595610  79.5069030  84.3637780  32.3035710
  79.6081010  84.1601770  31.3737690  78.6070770  84.1096060  32.5083490
  77.0294920  74.9218140  36.2859610  76.3211070  75.3904480  36.7273220
  77.3139400  74.2640150  36.9204800  78.1487140  86.8824100  36.9983380
  78.4028640  86.8445490  36.0762750  77.1999620  86.7557430  36.9911630
  75.2329940  73.2303220  33.6610320  76.0820470  73.6673370  33.5950510
  74.8661210  73.5423480  34.4882380  84.1539720  77.8015980  38.5741890
  83.2129860  77.8166210  38.7489580  84.4683790  77.0151940  39.0202190
  74.1321360  79.4835580  32.1345850  74.8984630  79.3716940  32.6971280
  74.2096050  78.7873550  31.4822620  72.8268120  76.9160650  32.8178740
  72.9071710  75.9688160  32.9296140  73.7187870  77.2467530  32.9239400
  86.1565300  84.9724830  40.2496150  86.2812720  85.7956000  40.7219960
  87.0230860  84.7615560  39.9020300  70.5128310  83.1329610  35.7954790
  69.5868090  83.3750750  35.7860200  70.9784740  83.9603870  35.6739540
  72.6341110  86.2502110  49.1098860  73.4353840  86.5714160  49.5234260
  72.1192930  85.8897690  49.8318770  76.7385140  86.2386350  31.7438850
  77.5313750  86.5275180  31.2920640  76.2189490  85.8078520  31.0651330
  81.4705740  82.3581980  49.0574270  80.8643900  82.3813580  48.3170020
  81.1659850  81.6265020  49.5941520  82.9006110  86.0862270  47.6683680
  83.8527860  86.0020290  47.6183920  82.7534330  86.7503980  48.3417470
  85.7915310  85.4656480  33.1675590  85.5056820  85.0521620  32.3529770
  85.5934860  86.3944190  33.0476110  77.2562540  81.4589760  31.6081200
  77.1513180  80.8442110  32.3342580  77.0886760  80.9355650  30.8244210
  77.4076860  80.1446560  47.5870430  76.6422530  80.7131560  47.5025100
  77.5892820  79.8522770  46.6938660  80.4965270  80.5209790  32.2123190
  79.9475370  80.9679090  32.8565930  81.1184530  80.0159040  32.7360860
  84.5500210  81.8751890  48.1445450  85.2909680  82.2127650  47.6412910
  83.7872890  82.0443950  47.5915220  76.1640390  79.4800710  34.1088490
  76.5856810  79.3140580  34.9519880  76.2891230  78.6700940  33.6143630
  78.6768030  78.5038320  31.3565590  79.1973690  77.7887340  30.9906740
  79.3236430  79.1424190  31.6566100  83.2245870  79.9266720  46.6800660
  83.6386890  80.0811800  47.5291080  82.2896870  80.0521940  46.8426440
  83.6968040  77.2662880  48.6839810  84.2788810  76.5115200  48.5960290
  83.8729810  77.7970320  47.9071290  80.3225000  77.6103380  46.0334430
  80.4421210  77.0144520  46.7729270  81.1819000  77.6473070  45.6135730
  82.6612900  78.1640570  44.6096940  82.1348120  78.6883190  44.0062080
  83.0044240  78.7967960  45.2406670  75.0599290  75.5533940  31.0546650
  74.8588350  74.6901300  31.4159990  74.8891340  75.4667300  30.1168250
  81.9087200  73.7690540  47.5243270  81.2202720  73.1072080  47.4593260
  82.6293220  73.3228810  47.9691730  82.5387600  70.3642170  33.5833530
  82.8189890  69.5210070  33.9392950  81.7653330  70.5965280  34.0972280
  73.8582090  72.6534560  31.0424530  74.1607990  72.6601990  30.1343680
  74.5976680  72.3032420  31.5392190  78.6930730  87.4191420  46.0240970
  78.6189430  88.3226560  46.3313340  77.7909570  87.1003320  45.9963040
  77.0767020  71.5969180  32.0280730  76.7289020  70.9193170  31.4483180
  77.2779790  71.1358690  32.8424120  79.2416060  86.5849930  33.6467330
  80.1366850  86.9234900  33.6686090  79.2733690  85.8629340  33.0191610
  72.8812220  81.9576980  31.8754330  73.3187090  82.5006650  32.5311910
  73.3659950  81.1323930  31.8850670  70.0958020  84.7466010  39.3274590
  70.4261030  83.8787070  39.0953230  70.5249020  84.9524530  40.1579550
  74.6919940  83.0775020  36.9876560  74.3915480  82.9539990  37.8880470
  74.5857430  82.2183610  36.5792290  86.2210410  85.1153600  46.3533530
  85.6212400  85.1746160  45.6097450  86.3504310  84.1758580  46.4830380
  87.4611860  82.8571420  31.6903240  86.6304820  82.9248070  32.1610470
  87.6383690  83.7475540  31.3870100  86.9168320  79.6018900  34.1937440
  87.6787230  80.1715550  34.2997130  86.9322690  79.0346100  34.9645750
  70.4172660  78.1256830  38.4245100  69.7621500  77.8568470  37.7804800
  71.2550610  78.0161310  37.9747080  87.9228290  80.4569000  39.0379370
  88.2937120  79.6736320  38.6315340  88.5630220  81.1458100  38.8596670
  84.9062050  81.8405580  44.4509690  84.0921890  82.2702740  44.7135480
  85.3136250  82.4523990  43.8378740  86.9687490  79.8953270  31.3509960
  87.2436330  80.8032150  31.2229180  86.7798230  79.8315800  32.2871950
  83.3663100  72.9198120  32.6463590  83.7847980  72.7329100  31.8060250
  83.0599160  72.0677170  32.9566520  86.8652830  77.8322260  36.3439390
  86.4896430  77.0650190  35.9120680  86.1355950  78.2144960  36.8314320
  86.2552450  76.9793780  45.9778910  86.0238540  76.7506530  45.0776860
  86.5157000  77.8993330  45.9323800  69.6310740  75.3355760  34.3670430
  68.7274820  75.5985960  34.1922090  70.1151360  75.6066930  33.5870390
  86.1403790  76.0579750  39.6446630  86.6641270  75.5642400  39.0136800
  86.7263210  76.1930110  40.3894200  86.3193510  76.1419620  43.1666180
  85.3696220  76.1083160  43.2811170  86.5006520  77.0519730  42.9315950
  72.1737950  74.3921300  32.2764810  72.8829650  73.9704520  31.7912090
  71.4577890  74.4596530  31.6448160  71.8212110  70.4460630  31.3167460
  72.5440240  70.9869570  31.6348680  72.0936630  70.1724050  30.4409000
  85.6303760  75.3153100  35.5839040  86.1262880  75.0823970  36.3687920
  85.4319830  74.4764940  35.1676680  87.0590920  73.9514050  38.1176720
  86.9490200  73.7970090  39.0558990  87.8198510  73.4234990  37.8752130
  87.9481190  71.7821970  31.3582860  88.8730500  71.6503150  31.1501150
  87.9256980  71.8614790  32.3119310  88.0219680  72.5532630  33.9839570
  87.2271180  72.4877750  34.5132480  88.2262960  73.4883270  33.9724920
  84.9638100  86.5924180  37.9777960  85.5597170  86.2708750  37.3012380
  85.2216250  86.1196000  38.7691230  72.8700670  83.0242090  48.1268590
  72.8270300  82.6535000  49.0083050  73.0011680  83.9619660  48.2670410
  81.4135680  70.7004430  47.1227110  82.0276090  71.0183720  46.4608190
  81.9585240  70.2153020  47.7422970  87.8310860  86.5996060  44.5288950
  87.3369140  86.9964930  43.8116080  87.2224150  85.9745270  44.9226230
  85.5150310  87.2419480  41.8075690  85.0553280  87.9935290  41.4333710
  84.8862770  86.5225950  41.7490490  78.6841530  86.4416210  41.8092800
  78.9719340  86.1870510  40.9325810  79.1964750  85.8893570  42.3998370
  70.6230930  86.6537110  37.4071170  70.4552970  86.0207790  38.1053060
  69.7565440  86.8596510  37.0565360  71.2458950  70.4853890  34.9103030
  72.0038310  70.5982770  34.3367060  70.7836120  71.3223090  34.8646460
  77.7872760  72.5993160  37.9005340  76.9747270  72.2250050  37.5601220
  78.2914400  71.8438240  38.2026530  85.4332340  69.6657170  34.4128690
  85.6282970  70.5640620  34.6796120  84.6462210  69.4344250  34.9061640
  72.2293630  85.3470340  34.8521310  71.7041250  85.7278370  34.1483270
  72.1538210  85.9721110  35.5731020  73.6184100  71.0117940  33.4505000
  74.1476860  70.2247740  33.3212950  74.2512420  71.6909130  33.6840530
  75.8121940  70.7493080  36.5050390  75.1824680  70.0480390  36.6720520
  75.2727080  71.5097210  36.2883550  78.7513890  87.3632310  49.1761000
  79.6781200  87.1276580  49.2196960  78.7364320  88.1904310  48.6947030
  86.9858950  86.9057880  36.1735250  87.1611140  86.2195620  35.5296170
  86.2880520  87.4304930  35.7811920  75.9377500  70.0277060  48.9402880
  75.6561770  70.5310660  48.1763700  76.3197200  69.2298810  48.5745010
  74.8286600  87.2952720  33.7270560  75.5605420  87.0112000  33.1794450
  75.0880270  87.0566000  34.6169940  73.9901390  83.4117450  33.7316890
  73.3610270  83.8802550  34.2802720  74.1049220  82.5666670  34.1663080
  82.5392960  69.4430640  49.5183350  82.4258410  69.7625250  50.4134870
  83.3562700  69.8443150  49.2220630  85.3191450  86.5902170  49.0002040
  86.1116770  86.0951400  48.7928000  85.6124600  87.2692310  49.6077650
  81.4451110  77.4623110  19.8818090  81.3645160  76.5477720  19.6109800
  81.0315530  77.9590180  19.1757800  79.5769150  79.2402130  21.7627360
  78.8011250  78.7602570  22.0525930  80.2282080  78.5607780  21.5883520
  73.5934980  79.5521940  22.6403120  72.7619860  79.2970650  23.0399630
  74.2015960  79.6232710  23.3761040  83.5976580  83.6462320  20.5426490
  83.1358110  82.8749560  20.8713660  84.4102130  83.6728390  21.0478940
  73.5736240  83.5862030  22.8361140  73.8764280  82.6959770  22.6571360
  74.3179830  84.1432250  22.6083390  72.0026930  74.5123830  16.4245510
  71.1143630  74.8539800  16.3225390  72.2868120  74.3124150  15.5326340
  69.9659940  77.1129480  22.3085210  70.5376050  76.3451680  22.3088850
  69.9661480  77.4118240  21.3991820  79.8239890  85.9320330  20.1630480
  79.2051330  86.3877830  19.5924920  80.6791670  86.0871790  19.7620180
  79.0178140  81.9159320  21.7697520  78.9486420  80.9749260  21.6086650
  79.7798000  82.0060730  22.3420090  71.2084810  72.5213840  24.0954140
  71.0287650  71.6239590  24.3756900  70.8064890  73.0685710  24.7701090
  80.0483310  74.7229700  21.9966450  80.4248130  73.8501580  21.8840120
  79.9502820  75.0588400  21.1056890  74.1788320  73.0955330  17.4583890
  74.2855070  73.9959060  17.7652650  73.2680680  73.0473300  17.1678540
  83.8307430  72.2180140  18.9294790  84.6517050  71.7276710  18.9720270
  83.8641510  72.8077800  19.6826630  71.8271480  75.0174340  22.7036480
  72.5081590  75.2812710  23.3223880  71.5119530  74.1775210  23.0374490
  76.0196050  76.0641700  21.7909070  76.5274270  76.5622670  22.4314090
  76.5509290  75.2876900  21.6148430  88.1206980  74.2346890  25.4938420
  87.4159150  74.6228600  24.9753530  88.3864900  74.9297180  26.0959350
  74.3032150  70.7040260  26.0572490  74.3050590  71.2212650  25.2518390
  73.4736460  70.2270440  26.0342420  80.6903240  80.8159570  17.5562390
  80.0720510  81.2809020  16.9925110  81.2026490  81.5087050  17.9731900
  75.5535000  80.3435440  24.2345990  75.2204380  80.9704360  24.8767060
  75.7301680  80.8697320  23.4547660  84.0668910  74.1580520  21.7022330
  83.3624480  74.4465410  22.2825440  84.4281070  74.9680630  21.3421890
  73.9847480  72.4150220  24.0642940  74.3264290  73.2592270  23.7696810
  73.0463290  72.5633960  24.1808280  74.7654100  82.3116240  26.0495170
  75.3828100  82.9867320  25.7679620  73.9047220  82.7204220  25.9582670
  70.0586440  81.5016100  14.9302020  69.6814420  81.9903200  14.1986920
  70.3159510  82.1741380  15.5608550  85.6831690  83.7755650  23.9649810
  84.9995210  84.4454760  23.9566480  86.2225980  83.9736300  23.1994670
  87.1355830  73.6035310  22.0931540  86.1880740  73.6374290  22.2246970
  87.4605820  74.4174260  22.4780900  77.6675370  69.9032490  20.3887530
  77.9750350  69.3479380  19.6723030  76.7376070  70.0376950  20.2060520
  83.2190430  85.6199780  22.6794990  83.2317590  85.2162070  21.8117250
  82.6665650  86.3947070  22.5756420  84.5135850  82.3416000  17.7685160
  84.4032180  81.3990330  17.8934580  84.5104100  82.7031640  18.6547920
  82.6175870  80.5229620  24.0077600  83.0344660  80.3089730  23.1731060
  83.3415690  80.7802410  24.5786220  80.0556130  77.9681320  17.1247650
  79.1285410  77.9018700  17.3536120  80.2080950  78.9061450  17.0102890
  80.0425210  74.2398320  14.1214810  79.1028880  74.4012280  14.2067270
  80.3608470  74.9584000  13.5750800  86.5637970  78.9216840  24.0993840
  85.7356600  78.9909930  23.6243970  87.1588450  79.5071150  23.6309670
  84.0853420  79.5301620  17.6282900  83.4665840  79.1921170  16.9809200
  84.0677870  78.8861380  18.3362090  83.5279980  75.7086160  25.0448710
  83.1151160  76.5339870  25.2988700  82.7955930  75.1231200  24.8525070
  75.6612770  78.4946060  19.9067380  75.2569770  77.7823310  19.4113280
  75.7475890  78.1499300  20.7955420  76.1294470  82.1813620  22.0706590
  75.8322760  81.5759090  21.3914370  77.0794290  82.2190930  21.9595950
  74.3741390  75.2689270  23.6866420  74.9255980  75.3784610  22.9119670
  74.8884900  75.6426870  24.4021650  84.2180080  85.7545490  25.7329690
  83.7410640  86.5617680  25.5402300  83.5341870  85.1023820  25.8855900
  75.2212900  81.9195310  28.7214390  74.3241430  82.1435280  28.9687790
  75.2465770  82.0430250  27.7725790  82.2618120  78.7688430  14.6355650
  82.7011400  77.9310860  14.4893470  82.9746540  79.4017830  14.7219790
  74.0484120  78.7908630  27.2971760  73.9091890  79.6631430  27.6659160
  73.1665480  78.4481440  27.1519700  80.3713500  83.7084500  18.6036890
  80.8109410  84.4508830  18.1892280  80.3100390  83.9511070  19.5275850
  75.8464470  84.7330330  29.5056910  75.8179900  85.1373280  28.6385340
  75.6829440  83.8040690  29.3428510  85.8435260  70.0231240  12.9496690
  85.5307920  70.1158070  13.8495760  86.6047730  70.6012270  12.8994120
  72.3617400  77.3891040  17.4074030  72.2415000  78.1153130  16.7955300
  72.0518290  76.6193950  16.9301940  87.7979290  85.5157430  30.8021080
  88.2739010  85.9940320  31.4810160  88.4186450  85.4474920  30.0766580
  70.0002770  80.5606180  23.2142670  70.0783190  80.6954950  22.2698390
  70.6144450  79.8522070  23.4070790  71.2450400  82.2606370  19.6248850
  70.8378480  82.4020960  18.7702450  72.1363410  81.9766530  19.4220060
  87.2012540  82.7070280  27.9621090  87.3275600  82.4682160  27.0438270
  87.2433920  81.8754820  28.4343170  81.0629280  86.4098280  26.5315900
  81.5773950  86.3206290  27.3338330  80.2198360  86.7557980  26.8243810
  83.0383680  86.6953620  15.9599900  82.8784820  86.4056560  16.8581730
  82.8730390  85.9193750  15.4245130  75.5172060  86.4752150  17.7371520
  75.3414540  85.5587690  17.5239320  74.6627800  86.8339440  17.9769320
  82.7409810  84.2041180  14.5197900  82.0474970  84.2018470  13.8600180
  83.4832670  83.7800500  14.0892070  82.3059740  85.8303890  18.5946390
  82.7616690  85.0493270  18.9085010  82.6452260  86.5410710  19.1387570
  87.0536550  74.7602740  28.9270830  86.4380820  75.2682410  28.3986290
  86.7332970  73.8601070  28.8696770  70.0562290  81.6020350  25.7537130
  70.2193330  81.1325710  24.9356500  70.5214740  81.0943910  26.4185970
  74.8281060  70.7326110  20.7897700  74.3849210  71.5135650  20.4582220
  75.3866050  71.0556000  21.4968640  79.1150870  73.5994630  26.3933020
  78.6530240  73.8077650  27.2052960  78.7128980  72.7853980  26.0903690
  84.1155380  74.8203580  27.5229680  83.2648970  74.5209330  27.8438750
  83.9557170  75.0645590  26.6113500  81.2105090  76.3205330  29.6228470
  81.5358500  75.4869080  29.2830700  81.9985420  76.8433850  29.7706800
  77.9439880  70.3536810  15.6703530  77.3194060  70.3496680  16.3956840
  77.8570000  69.4867770  15.2739500  76.8656960  71.2773440  22.6487300
  77.1629290  72.1836270  22.5679320  77.4142520  70.7892220  22.0346870
  74.6195280  75.8559680  18.5178950  74.3936200  75.6396850  19.4225570
  73.8387810  76.2888140  18.1724920  81.8493040  75.8623050  17.1169600
  81.2501930  76.5858850  16.9333220  82.3972650  75.7999830  16.3346050
  77.0594490  76.7545260  29.1839220  76.9638090  75.8139990  29.0339620
  77.9026470  76.9760330  28.7887290  80.4557910  74.4986590  19.1472880
  80.8487480  74.8158790  18.3341570  80.8174760  73.6198470  19.2617400
  72.1905030  73.1658930  27.3373000  71.7968420  74.0134140  27.5445780
  71.5023430  72.5285300  27.5281640  78.7650080  73.2493900  30.4069740
  78.0748400  73.0566100  31.0415830  79.5082380  73.5328540  30.9394040
  69.4922080  71.0887390  21.3703080  69.2035130  71.6590250  22.0828060
  70.2367840  70.6091840  21.7334310  69.6792310  75.0307510  12.5805800
  69.5966980  75.9738270  12.7220790  69.3275370  74.8882420  11.7018150
  81.0413050  77.0892340  23.2423660  80.3094170  77.5979150  23.5913760
  80.6437390  76.2722320  22.9412440  77.4790440  73.7646540  21.6476150
  77.4826500  73.3236490  20.7980690  78.3741560  74.0863870  21.7547970
  73.3292820  73.6473030  20.6070360  72.9892870  74.1248260  21.3637410
  72.5670140  73.1938150  20.2471460  77.5410590  74.7658620  14.6382910
  77.6623410  74.7245100  15.5868730  77.1559100  75.6282770  14.4829640
  81.5038960  72.5426020  22.6546600  81.5211700  72.9934670  23.4988450
  81.2554540  71.6431660  22.8680040  76.5532090  77.0759760  14.0366210
  75.9848990  76.6278010  13.4102120  77.2621090  77.4352540  13.5031360
  84.9309710  69.9558200  28.4932980  85.2555480  69.2247860  29.0190960
  84.9666220  69.6371840  27.5913970  71.6301270  80.9771780  27.9132940
  71.2456060  80.3365450  28.5115900  71.9413460  81.6807900  28.4827670
  77.7798410  77.8248320  23.3941560  78.1468540  77.3506890  24.1402900
  77.5903470  78.6989890  23.7349900  70.6438900  72.5692010  19.5235030
  70.3585820  72.2047680  20.3613650  70.5817760  71.8372470  18.9098170
  75.5697780  76.8656960  25.7125770  75.2654850  77.7448940  25.9376130
  76.5244240  76.9256750  25.7483210  74.0979570  81.0717950  16.3092620
  73.3241830  80.5315570  16.1491340  74.8274200  80.5524560  15.9710380
  84.8567550  80.0683310  22.1019010  85.5766670  80.5638600  21.7115120
  84.6549370  79.3901200  21.4572880  80.3177490  71.4621270  16.2448400
  79.5042100  70.9634440  16.1693710  80.1239440  72.3019520  15.8284750
  80.2386350  80.1392370  27.9888010  80.1723660  79.2188040  27.7345600
  79.6091490  80.2367810  28.7032650  83.0325880  75.8340920  14.5410560
  83.9205500  76.1458150  14.3661900  83.0030970  74.9613170  14.1491140
  74.1416970  80.7398330  19.9471430  74.6595640  79.9366590  19.8928320
  73.6900990  80.6777470  20.7888260  79.0286470  82.0064610  15.2198730
  79.3702170  82.7506840  14.7242050  78.1999180  82.3195730  15.5823560
  71.6261510  77.7059700  26.8597130  71.2676450  78.3713550  27.4470470
  71.3316070  76.8743250  27.2309750  74.8274630  78.1643940  29.7436680
  74.5274770  78.3101120  28.8464500  75.5985870  77.6049230  29.6510070
  80.1703080  82.9612940  27.7391810  80.1847620  82.0293900  27.5210720
  79.4628180  83.0472700  28.3781580  85.3040150  77.1452760  14.0090420
  85.2203870  77.5766980  13.1586860  86.0234340  77.6051110  14.4417240
  86.3814290  79.6020280  27.0860390  85.6562480  80.1949060  26.8889780
  86.9089750  79.5943820  26.2873760  86.3327400  83.9995020  16.7372550
  85.6903560  83.3450640  17.0116270  85.9458060  84.4050110  15.9613220
  81.9113880  81.3280450  20.5844240  82.2637700  80.7308580  19.9245610
  81.0276210  81.0024680  20.7552490  77.9977160  82.0878140  17.9914650
  78.6848290  82.6347350  18.3722240  77.2109580  82.6318870  18.0264260
  70.1369560  77.7050960  13.4831730  71.0064410  77.9875760  13.7667650
  69.6459880  78.5186830  13.3680540  77.3004370  79.0924170  17.6040010
  77.7567150  79.9029420  17.8300200  76.9492580  78.7747310  18.4358500
  79.6036980  84.6030510  24.8332310  80.2479200  84.8089890  25.5105730
  79.9666420  83.8418910  24.3803160  73.2016150  69.4361820  18.0762530
  73.0730780  69.4279720  19.0247450  72.3778170  69.7744910  17.7253540
  80.8769060  82.6062860  23.5509760  81.5191290  81.9056020  23.6641930
  81.4018410  83.3861300  23.3706650  84.7224780  82.8911480  13.2748900
  84.4962360  82.1741920  13.8673540  84.3320980  82.6423920  12.4370650
  82.6506680  83.4057760  26.7545820  82.9862920  83.9924450  27.4323740
  81.7307020  83.2750470  26.9843610  70.5040810  86.9178340  14.0493360
  70.8638450  87.5167680  13.3950630  70.3633150  87.4638230  14.8228390
  70.2010080  71.1952940  27.5369230  69.4868600  71.3949860  28.1421840
  70.6205120  70.4192510  27.9084030  84.3041030  80.8083420  14.9363060
  84.0162730  81.2696110  15.7240940  85.0993200  80.3481190  15.2047280
  70.4882670  85.1833200  28.5235760  70.5973790  84.2427940  28.3831150
  69.8363230  85.4487950  27.8749490  78.4795260  83.4549090  29.9233880
  78.1592130  82.7358330  30.4679570  77.8053620  84.1304160  29.9969940
  76.5209430  84.3009540  14.8667030  76.5119530  85.0339230  14.2511540
  75.6007790  84.0541120  14.9593990  72.1216070  79.5224430  15.6113790
  71.5144020  80.2623330  15.6209090  72.5965420  79.6123790  14.7851990
  81.6948860  73.6875250  25.2870680  82.0629680  72.8670460  25.6150250
  80.8347060  73.7477140  25.7026330  85.0610890  72.6432190  16.0958240
  84.4324050  72.7477860  15.3816470  84.5662810  72.8628970  16.8852120
  79.5069030  84.3637780  13.5292220  79.6081010  84.1601770  12.5994200
  78.6070770  84.1096060  13.7340000  77.0294920  74.9218140  17.5116120
  76.3211070  75.3904480  17.9529730  77.3139400  74.2640150  18.1461310
  78.6550850  76.3414840  25.5108650  79.1536100  76.8160660  26.1760500
  78.7973800  75.4178360  25.7178680  81.0610350  71.6468800  18.9511910
  80.9378130  71.6654930  18.0021420  82.0094910  71.6947740  19.0710310
  78.1487140  86.8824100  18.2239890  78.4028640  86.8445490  17.3019260
  77.1999620  86.7557430  18.2168140  75.2329940  73.2303220  14.8866830
  76.0820470  73.6673370  14.8207020  74.8661210  73.5423480  15.7138890
  85.8617710  72.5582800  26.3537040  85.3591310  73.2988200  26.6930850
  86.6774370  72.9466800  26.0373830  84.1539720  77.8015980  19.7998400
  83.2129860  77.8166210  19.9746090  84.4683790  77.0151940  20.2458700
  74.1321360  79.4835580  13.3602360  74.8984630  79.3716940  13.9227790
  74.2096050  78.7873550  12.7079130  72.8268120  76.9160650  14.0435250
  72.9071710  75.9688160  14.1552650  73.7187870  77.2467530  14.1495910
  86.1565300  84.9724830  21.4752660  86.2812720  85.7956000  21.9476470
  87.0230860  84.7615560  21.1276810  73.6282830  87.0656040  21.1469790
  74.3645310  86.5171500  21.4178360  74.0123750  87.9312050  21.0075780
  70.5128310  83.1329610  17.0211300  69.5868090  83.3750750  17.0116710
  70.9784740  83.9603870  16.8996050  72.6341110  86.2502110  30.3355370
  73.4353840  86.5714160  30.7490770  72.1192930  85.8897690  31.0575280
  76.7385140  86.2386350  12.9695360  77.5313750  86.5275180  12.5177150
  76.2189490  85.8078520  12.2907840  81.4705740  82.3581980  30.2830780
  80.8643900  82.3813580  29.5426530  81.1659850  81.6265020  30.8198030
  82.9006110  86.0862270  28.8940190  83.8527860  86.0020290  28.8440430
  82.7534330  86.7503980  29.5673980  85.7915310  85.4656480  14.3932100
  85.5056820  85.0521620  13.5786280  85.5934860  86.3944190  14.2732620
  70.3538920  78.7375570  29.2791420  70.8577940  78.1582850  29.8507650
  69.6146340  79.0215800  29.8167790  77.2562540  81.4589760  12.8337710
  77.1513180  80.8442110  13.5599090  77.0886760  80.9355650  12.0500720
  77.4076860  80.1446560  28.8126940  76.6422530  80.7131560  28.7281610
  77.5892820  79.8522770  27.9195170  80.4965270  80.5209790  13.4379700
  79.9475370  80.9679090  14.0822440  81.1184530  80.0159040  13.9617370
  84.5500210  81.8751890  29.3701960  85.2909680  82.2127650  28.8669420
  83.7872890  82.0443950  28.8171730  72.3862000  76.8805160  30.1741490
  72.4267340  76.5819030  31.0826720  73.2407500  77.2812770  30.0149010
  76.1640390  79.4800710  15.3345000  76.5856810  79.3140580  16.1776390
  76.2891230  78.6700940  14.8400140  74.3267810  75.4597260  28.1415980
  73.7964270  74.9688210  27.5139320  74.9955880  75.8881460  27.6073910
  78.6768030  78.5038320  12.5822100  79.1973690  77.7887340  12.2163250
  79.3236430  79.1424190  12.8822610  83.2245870  79.9266720  27.9057170
  83.6386890  80.0811800  28.7547590  82.2896870  80.0521940  28.0682950
  83.6968040  77.2662880  29.9096320  84.2788810  76.5115200  29.8216800
  83.8729810  77.7970320  29.1327800  74.8140110  72.4259630  28.2213270
  74.7196980  71.8080380  27.4964140  74.2337500  73.1525920  27.9943180
  77.5801550  70.9832870  25.2540660  77.1318850  71.0057130  24.4086210
  76.9466750  70.5851890  25.8510960  77.9861100  79.8787200  25.8753100
  78.4049210  80.7219930  25.7029340  77.0669730  80.0159240  25.6459880
  80.3225000  77.6103380  27.2590940  80.4421210  77.0144520  27.9985780
  81.1819000  77.6473070  26.8392240  82.6612900  78.1640570  25.8353450
  82.1348120  78.6883190  25.2318590  83.0044240  78.7967960  26.4663180
  75.0599290  75.5533940  12.2803160  74.8588350  74.6901300  12.6416500
  74.8891340  75.4667300  11.3424760  75.8368520  86.1840210  26.9910830
  75.2989610  86.9086270  26.6719530  76.0902480  85.7070550  26.2008170
  77.0893770  74.1524730  28.5166760  77.6793460  73.8440580  29.2044580
  76.2714010  73.6804480  28.6726660  81.9087200  73.7690540  28.7499780
  81.2202720  73.1072080  28.6849770  82.6293220  73.3228810  29.1948240
  82.5387600  70.3642170  14.8090040  82.8189890  69.5210070  15.1649460
  81.7653330  70.5965280  15.3228790  73.8582090  72.6534560  12.2681040
  74.1607990  72.6601990  11.3600190  74.5976680  72.3032420  12.7648700
  78.6930730  87.4191420  27.2497480  78.6189430  88.3226560  27.5569850
  77.7909570  87.1003320  27.2219550  77.0767020  71.5969180  13.2537240
  76.7289020  70.9193170  12.6739690  77.2779790  71.1358690  14.0680630
  79.2416060  86.5849930  14.8723840  80.1366850  86.9234900  14.8942600
  79.2733690  85.8629340  14.2448120  72.8812220  81.9576980  13.1010840
  73.3187090  82.5006650  13.7568420  73.3659950  81.1323930  13.1107180
  70.0958020  84.7466010  20.5531100  70.4261030  83.8787070  20.3209740
  70.5249020  84.9524530  21.3836060  74.6919940  83.0775020  18.2133070
  74.3915480  82.9539990  19.1136980  74.5857430  82.2183610  17.8048800
  70.5848230  85.6136600  23.2912730  70.1479220  85.7937400  24.1236880
  71.1525910  86.3711220  23.1494450  86.2210410  85.1153600  27.5790040
  85.6212400  85.1746160  26.8353960  86.3504310  84.1758580  27.7086890
  87.4611860  82.8571420  12.9159750  86.6304820  82.9248070  13.3866980
  87.6383690  83.7475540  12.6126610  86.9168320  79.6018900  15.4193950
  87.6787230  80.1715550  15.5253640  86.9322690  79.0346100  16.1902260
  70.4172660  78.1256830  19.6501610  69.7621500  77.8568470  19.0061310
  71.2550610  78.0161310  19.2003590  87.9228290  80.4569000  20.2635880
  88.2937120  79.6736320  19.8571850  88.5630220  81.1458100  20.0853180
  84.9062050  81.8405580  25.6766200  84.0921890  82.2702740  25.9391990
  85.3136250  82.4523990  25.0635250  86.9687490  79.8953270  12.5766470
  87.2436330  80.8032150  12.4485690  86.7798230  79.8315800  13.5128460
  83.3663100  72.9198120  13.8720100  83.7847980  72.7329100  13.0316760
  83.0599160  72.0677170  14.1823030  86.8652830  77.8322260  17.5695900
  86.4896430  77.0650190  17.1377190  86.1355950  78.2144960  18.0570830
  71.4548590  78.5109400  24.1904950  71.8221630  78.4236800  25.0700970
  70.8859410  77.7475950  24.0911810  86.2552450  76.9793780  27.2035420
  86.0238540  76.7506530  26.3033370  86.5157000  77.8993330  27.1580310
  71.0064590  75.4218490  28.0963370  70.1120640  75.3885250  28.4357080
  71.5462140  75.6205280  28.8614620  84.6940520  72.2050210  29.9815120
  85.5710700  72.2133610  30.3649120  84.7061360  71.4681050  29.3707470
  69.6310740  75.3355760  15.5926940  68.7274820  75.5985960  15.4178600
  70.1151360  75.6066930  14.8126900  86.1403790  76.0579750  20.8703140
  86.6641270  75.5642400  20.2393310  86.7263210  76.1930110  21.6150710
  86.3193510  76.1419620  24.3922690  85.3696220  76.1083160  24.5067680
  86.5006520  77.0519730  24.1572460  72.1737950  74.3921300  13.5021320
  72.8829650  73.9704520  13.0168600  71.4577890  74.4596530  12.8704670
  71.8212110  70.4460630  12.5423970  72.5440240  70.9869570  12.8605190
  72.0936630  70.1724050  11.6665510  85.6303760  75.3153100  16.8095550
  86.1262880  75.0823970  17.5944430  85.4319830  74.4764940  16.3933190
  71.5104300  69.6966820  22.4446590  72.1580490  69.1464200  22.0041750
  71.9306140  69.9509970  23.2662400  87.0590920  73.9514050  19.3433230
  86.9490200  73.7970090  20.2815500  87.8198510  73.4234990  19.1008640
  85.4056640  69.8908180  25.8016230  86.0428860  70.5042320  26.1675420
  85.5531530  69.9268840  24.8565460  87.9481190  71.7821970  12.5839370
  88.8730500  71.6503150  12.3757660  87.9256980  71.8614790  13.5375820
  88.0219680  72.5532630  15.2096080  87.2271180  72.4877750  15.7388990
  88.2262960  73.4883270  15.1981430  84.9638100  86.5924180  19.2034470
  85.5597170  86.2708750  18.5268890  85.2216250  86.1196000  19.9947740
  71.2636300  69.8522490  25.1871910  70.9151120  70.3086310  25.9530090
  70.9324000  68.9579620  25.2694340  72.8700670  83.0242090  29.3525100
  72.8270300  82.6535000  30.2339560  73.0011680  83.9619660  29.4926920
  76.5706700  84.5801680  24.9534820  76.3298060  84.8476240  24.0665340
  77.5109340  84.7507410  25.0085680  78.7761120  71.0434370  28.7091330
  78.7150010  71.6356200  29.4586740  79.7161500  70.9360330  28.5641590
  81.4135680  70.7004430  28.3483620  82.0276090  71.0183720  27.6864700
  81.9585240  70.2153020  28.9679480  87.8310860  86.5996060  25.7545460
  87.3369140  86.9964930  25.0372590  87.2224150  85.9745270  26.1482740
  71.9356940  69.3798690  28.4622680  72.4839930  69.1986740  27.6988790
  72.0012250  68.5892800  28.9978990  72.7088700  85.9704340  26.4722880
  72.1149020  85.8389040  27.2112920  72.7012540  85.1342480  26.0064980
  82.1543720  69.2636570  24.6752910  81.2803560  69.5971680  24.4725840
  82.0454470  68.7909750  25.5004780  83.0615700  71.4707440  26.0594630
  82.7329060  70.6559200  25.6796360  84.0098000  71.4277250  25.9360320
  85.5150310  87.2419480  23.0332200  85.0553280  87.9935290  22.6590220
  84.8862770  86.5225950  22.9747000  72.3400930  83.3362720  25.4230920
  71.6134990  82.7168010  25.3556870  72.4010080  83.7303330  24.5529000
  75.9446030  85.5507720  22.2080330  76.4611050  84.9395080  21.6828590
  76.5943410  86.0536500  22.6991340  78.6841530  86.4416210  23.0349310
  78.9719340  86.1870510  22.1582320  79.1964750  85.8893570  23.6254880
  79.9018540  70.1806410  23.6145820  79.1190330  70.6551910  23.8942580
  79.6081470  69.2761240  23.5059000  86.3178180  70.5144750  19.6703730
  86.2566580  69.5705970  19.5234750  87.0970210  70.6224840  20.2157190
  70.6230930  86.6537110  18.6327680  70.4552970  86.0207790  19.3309570
  69.7565440  86.8596510  18.2821870  71.2458950  70.4853890  16.1359540
  72.0038310  70.5982770  15.5623570  70.7836120  71.3223090  16.0902970
  77.7872760  72.5993160  19.1261850  76.9747270  72.2250050  18.7857730
  78.2914400  71.8438240  19.4283040  82.2897740  69.2635610  20.3644920
  82.8927110  69.8355820  20.8393440  81.5490730  69.8275050  20.1418820
  85.4332340  69.6657170  15.6385200  85.6282970  70.5640620  15.9052630
  84.6462210  69.4344250  16.1318150  72.2293630  85.3470340  16.0777820
  71.7041250  85.7278370  15.3739780  72.1538210  85.9721110  16.7987530
  73.6184100  71.0117940  14.6761510  74.1476860  70.2247740  14.5469460
  74.2512420  71.6909130  14.9097040  75.8121940  70.7493080  17.7306900
  75.1824680  70.0480390  17.8977030  75.2727080  71.5097210  17.5140060
  78.7513890  87.3632310  30.4017510  79.6781200  87.1276580  30.4453470
  78.7364320  88.1904310  29.9203540  86.9858950  86.9057880  17.3991760
  87.1611140  86.2195620  16.7552680  86.2880520  87.4304930  17.0068430
  75.9377500  70.0277060  30.1659390  75.6561770  70.5310660  29.4020210
  76.3197200  69.2298810  29.8001520  74.8286600  87.2952720  14.9527070
  75.5605420  87.0112000  14.4050960  75.0880270  87.0566000  15.8426450
  73.9901390  83.4117450  14.9573400  73.3610270  83.8802550  15.5059230
  74.1049220  82.5666670  15.3919590  82.5392960  69.4430640  30.7439860
  82.4258410  69.7625250  31.6391380  83.3562700  69.8443150  30.4477140
  85.3191450  86.5902170  30.2258550  86.1116770  86.0951400  30.0184510
  85.6124600  87.2692310  30.8334160  79.5769150  79.2402130   2.9883870
  78.8011250  78.7602570   3.2782440  80.2282080  78.5607780   2.8140030
  73.5934980  79.5521940   3.8659630  72.7619860  79.2970650   4.2656140
  74.2015960  79.6232710   4.6017550  83.5976580  83.6462320   1.7683000
  83.1358110  82.8749560   2.0970170  84.4102130  83.6728390   2.2735450
  73.5736240  83.5862030   4.0617650  73.8764280  82.6959770   3.8827870
  74.3179830  84.1432250   3.8339900  69.9659940  77.1129480   3.5341720
  70.5376050  76.3451680   3.5345360  69.9661480  77.4118240   2.6248330
  79.0178140  81.9159320   2.9954030  78.9486420  80.9749260   2.8343160
  79.7798000  82.0060730   3.5676600  71.2084810  72.5213840   5.3210650
  71.0287650  71.6239590   5.6013410  70.8064890  73.0685710   5.9957600
  80.0483310  74.7229700   3.2222960  80.4248130  73.8501580   3.1096630
  79.9502820  75.0588400   2.3313400  71.8271480  75.0174340   3.9292990
  72.5081590  75.2812710   4.5480390  71.5119530  74.1775210   4.2631000
  76.0196050  76.0641700   3.0165580  76.5274270  76.5622670   3.6570600
  76.5509290  75.2876900   2.8404940  88.1206980  74.2346890   6.7194930
  87.4159150  74.6228600   6.2010040  88.3864900  74.9297180   7.3215860
  74.3032150  70.7040260   7.2829000  74.3050590  71.2212650   6.4774900
  73.4736460  70.2270440   7.2598930  75.5535000  80.3435440   5.4602500
  75.2204380  80.9704360   6.1023570  75.7301680  80.8697320   4.6804170
  84.0668910  74.1580520   2.9278840  83.3624480  74.4465410   3.5081950
  84.4281070  74.9680630   2.5678400  73.9847480  72.4150220   5.2899450
  74.3264290  73.2592270   4.9953320  73.0463290  72.5633960   5.4064790
  74.7654100  82.3116240   7.2751680  75.3828100  82.9867320   6.9936130
  73.9047220  82.7204220   7.1839180  85.6831690  83.7755650   5.1906320
  84.9995210  84.4454760   5.1822990  86.2225980  83.9736300   4.4251180
  87.1355830  73.6035310   3.3188050  86.1880740  73.6374290   3.4503480
  87.4605820  74.4174260   3.7037410  83.2190430  85.6199780   3.9051500
  83.2317590  85.2162070   3.0373760  82.6665650  86.3947070   3.8012930
  82.6175870  80.5229620   5.2334110  83.0344660  80.3089730   4.3987570
  83.3415690  80.7802410   5.8042730  86.5637970  78.9216840   5.3250350
  85.7356600  78.9909930   4.8500480  87.1588450  79.5071150   4.8566180
  83.5279980  75.7086160   6.2705220  83.1151160  76.5339870   6.5245210
  82.7955930  75.1231200   6.0781580  76.1294470  82.1813620   3.2963100
  75.8322760  81.5759090   2.6170880  77.0794290  82.2190930   3.1852460
  74.3741390  75.2689270   4.9122930  74.9255980  75.3784610   4.1376180
  74.8884900  75.6426870   5.6278160  84.2180080  85.7545490   6.9586200
  83.7410640  86.5617680   6.7658810  83.5341870  85.1023820   7.1112410
  75.2212900  81.9195310   9.9470900  74.3241430  82.1435280  10.1944300
  75.2465770  82.0430250   8.9982300  74.0484120  78.7908630   8.5228270
  73.9091890  79.6631430   8.8915670  73.1665480  78.4481440   8.3776210
  75.8464470  84.7330330  10.7313420  75.8179900  85.1373280   9.8641850
  75.6829440  83.8040690  10.5685020  87.7979290  85.5157430  12.0277590
  88.2739010  85.9940320  12.7066670  88.4186450  85.4474920  11.3023090
  70.0002770  80.5606180   4.4399180  70.0783190  80.6954950   3.4954900
  70.6144450  79.8522070   4.6327300  87.2012540  82.7070280   9.1877600
  87.3275600  82.4682160   8.2694780  87.2433920  81.8754820   9.6599680
  81.0629280  86.4098280   7.7572410  81.5773950  86.3206290   8.5594840
  80.2198360  86.7557980   8.0500320  87.0536550  74.7602740  10.1527340
  86.4380820  75.2682410   9.6242800  86.7332970  73.8601070  10.0953280
  70.0562290  81.6020350   6.9793640  70.2193330  81.1325710   6.1613010
  70.5214740  81.0943910   7.6442480  74.8281060  70.7326110   2.0154210
  74.3849210  71.5135650   1.6838730  75.3866050  71.0556000   2.7225150
  79.1150870  73.5994630   7.6189530  78.6530240  73.8077650   8.4309470
  78.7128980  72.7853980   7.3160200  84.1155380  74.8203580   8.7486190
  83.2648970  74.5209330   9.0695260  83.9557170  75.0645590   7.8370010
  81.2105090  76.3205330  10.8484980  81.5358500  75.4869080  10.5087210
  81.9985420  76.8433850  10.9963310  76.8656960  71.2773440   3.8743810
  77.1629290  72.1836270   3.7935830  77.4142520  70.7892220   3.2603380
  77.0594490  76.7545260  10.4095730  76.9638090  75.8139990  10.2596130
  77.9026470  76.9760330  10.0143800  72.1905030  73.1658930   8.5629510
  71.7968420  74.0134140   8.7702290  71.5023430  72.5285300   8.7538150
  78.7650080  73.2493900  11.6326250  78.0748400  73.0566100  12.2672340
  79.5082380  73.5328540  12.1650550  69.4922080  71.0887390   2.5959590
  69.2035130  71.6590250   3.3084570  70.2367840  70.6091840   2.9590820
  81.0413050  77.0892340   4.4680170  80.3094170  77.5979150   4.8170270
  80.6437390  76.2722320   4.1668950  77.4790440  73.7646540   2.8732660
  77.4826500  73.3236490   2.0237200  78.3741560  74.0863870   2.9804480
  73.3292820  73.6473030   1.8326870  72.9892870  74.1248260   2.5893920
  72.5670140  73.1938150   1.4727970  81.5038960  72.5426020   3.8803110
  81.5211700  72.9934670   4.7244960  81.2554540  71.6431660   4.0936550
  84.9309710  69.9558200   9.7189490  85.2555480  69.2247860  10.2447470
  84.9666220  69.6371840   8.8170480  71.6301270  80.9771780   9.1389450
  71.2456060  80.3365450   9.7372410  71.9413460  81.6807900   9.7084180
  77.7798410  77.8248320   4.6198070  78.1468540  77.3506890   5.3659410
  77.5903470  78.6989890   4.9606410  75.5697780  76.8656960   6.9382280
  75.2654850  77.7448940   7.1632640  76.5244240  76.9256750   6.9739720
  84.8567550  80.0683310   3.3275520  85.5766670  80.5638600   2.9371630
  84.6549370  79.3901200   2.6829390  80.2386350  80.1392370   9.2144520
  80.1723660  79.2188040   8.9602110  79.6091490  80.2367810   9.9289160
  71.6261510  77.7059700   8.0853640  71.2676450  78.3713550   8.6726980
  71.3316070  76.8743250   8.4566260  74.8274630  78.1643940  10.9693190
  74.5274770  78.3101120  10.0721010  75.5985870  77.6049230  10.8766580
  80.1703080  82.9612940   8.9648320  80.1847620  82.0293900   8.7467230
  79.4628180  83.0472700   9.6038090  86.3814290  79.6020280   8.3116900
  85.6562480  80.1949060   8.1146290  86.9089750  79.5943820   7.5130270
  79.6036980  84.6030510   6.0588820  80.2479200  84.8089890   6.7362240
  79.9666420  83.8418910   5.6059670  80.8769060  82.6062860   4.7766270
  81.5191290  81.9056020   4.8898440  81.4018410  83.3861300   4.5963160
  82.6506680  83.4057760   7.9802330  82.9862920  83.9924450   8.6580250
  81.7307020  83.2750470   8.2100120  70.2010080  71.1952940   8.7625740
  69.4868600  71.3949860   9.3678350  70.6205120  70.4192510   9.1340540
  70.4882670  85.1833200   9.7492270  70.5973790  84.2427940   9.6087660
  69.8363230  85.4487950   9.1006000  78.4795260  83.4549090  11.1490390
  78.1592130  82.7358330  11.6936080  77.8053620  84.1304160  11.2226450
  81.6948860  73.6875250   6.5127190  82.0629680  72.8670460   6.8406760
  80.8347060  73.7477140   6.9282840  78.6550850  76.3414840   6.7365160
  79.1536100  76.8160660   7.4017010  78.7973800  75.4178360   6.9435190
  85.8617710  72.5582800   7.5793550  85.3591310  73.2988200   7.9187360
  86.6774370  72.9466800   7.2630340  86.1565300  84.9724830   2.7009170
  86.2812720  85.7956000   3.1732980  87.0230860  84.7615560   2.3533320
  73.6282830  87.0656040   2.3726300  74.3645310  86.5171500   2.6434870
  74.0123750  87.9312050   2.2332290  72.6341110  86.2502110  11.5611880
  73.4353840  86.5714160  11.9747280  72.1192930  85.8897690  12.2831790
  81.4705740  82.3581980  11.5087290  80.8643900  82.3813580  10.7683040
  81.1659850  81.6265020  12.0454540  82.9006110  86.0862270  10.1196700
  83.8527860  86.0020290  10.0696940  82.7534330  86.7503980  10.7930490
  70.3538920  78.7375570  10.5047930  70.8577940  78.1582850  11.0764160
  69.6146340  79.0215800  11.0424300  77.4076860  80.1446560  10.0383450
  76.6422530  80.7131560   9.9538120  77.5892820  79.8522770   9.1451680
  84.5500210  81.8751890  10.5958470  85.2909680  82.2127650  10.0925930
  83.7872890  82.0443950  10.0428240  72.3862000  76.8805160  11.3998000
  72.4267340  76.5819030  12.3083230  73.2407500  77.2812770  11.2405520
  74.3267810  75.4597260   9.3672490  73.7964270  74.9688210   8.7395830
  74.9955880  75.8881460   8.8330420  83.2245870  79.9266720   9.1313680
  83.6386890  80.0811800   9.9804100  82.2896870  80.0521940   9.2939460
  83.6968040  77.2662880  11.1352830  84.2788810  76.5115200  11.0473310
  83.8729810  77.7970320  10.3584310  74.8140110  72.4259630   9.4469780
  74.7196980  71.8080380   8.7220650  74.2337500  73.1525920   9.2199690
  77.5801550  70.9832870   6.4797170  77.1318850  71.0057130   5.6342720
  76.9466750  70.5851890   7.0767470  77.9861100  79.8787200   7.1009610
  78.4049210  80.7219930   6.9285850  77.0669730  80.0159240   6.8716390
  80.3225000  77.6103380   8.4847450  80.4421210  77.0144520   9.2242290
  81.1819000  77.6473070   8.0648750  82.6612900  78.1640570   7.0609960
  82.1348120  78.6883190   6.4575100  83.0044240  78.7967960   7.6919690
  75.8368520  86.1840210   8.2167340  75.2989610  86.9086270   7.8976040
  76.0902480  85.7070550   7.4264680  77.0893770  74.1524730   9.7423270
  77.6793460  73.8440580  10.4301090  76.2714010  73.6804480   9.8983170
  81.9087200  73.7690540   9.9756290  81.2202720  73.1072080   9.9106280
  82.6293220  73.3228810  10.4204750  78.6930730  87.4191420   8.4753990
  78.6189430  88.3226560   8.7826360  77.7909570  87.1003320   8.4476060
  70.0958020  84.7466010   1.7787610  70.4261030  83.8787070   1.5466250
  70.5249020  84.9524530   2.6092570  70.5848230  85.6136600   4.5169240
  70.1479220  85.7937400   5.3493390  71.1525910  86.3711220   4.3750960
  86.2210410  85.1153600   8.8046550  85.6212400  85.1746160   8.0610470
  86.3504310  84.1758580   8.9343400  84.9062050  81.8405580   6.9022710
  84.0921890  82.2702740   7.1648500  85.3136250  82.4523990   6.2891760
  71.4548590  78.5109400   5.4161460  71.8221630  78.4236800   6.2957480
  70.8859410  77.7475950   5.3168320  86.2552450  76.9793780   8.4291930
  86.0238540  76.7506530   7.5289880  86.5157000  77.8993330   8.3836820
  71.0064590  75.4218490   9.3219880  70.1120640  75.3885250   9.6613590
  71.5462140  75.6205280  10.0871130  84.6940520  72.2050210  11.2071630
  85.5710700  72.2133610  11.5905630  84.7061360  71.4681050  10.5963980
  86.1403790  76.0579750   2.0959650  86.6641270  75.5642400   1.4649820
  86.7263210  76.1930110   2.8407220  86.3193510  76.1419620   5.6179200
  85.3696220  76.1083160   5.7324190  86.5006520  77.0519730   5.3828970
  71.5104300  69.6966820   3.6703100  72.1580490  69.1464200   3.2298260
  71.9306140  69.9509970   4.4918910  85.4056640  69.8908180   7.0272740
  86.0428860  70.5042320   7.3931930  85.5531530  69.9268840   6.0821970
  71.2636300  69.8522490   6.4128420  70.9151120  70.3086310   7.1786600
  70.9324000  68.9579620   6.4950850  72.8700670  83.0242090  10.5781610
  72.8270300  82.6535000  11.4596070  73.0011680  83.9619660  10.7183430
  76.5706700  84.5801680   6.1791330  76.3298060  84.8476240   5.2921850
  77.5109340  84.7507410   6.2342190  78.7761120  71.0434370   9.9347840
  78.7150010  71.6356200  10.6843250  79.7161500  70.9360330   9.7898100
  81.4135680  70.7004430   9.5740130  82.0276090  71.0183720   8.9121210
  81.9585240  70.2153020  10.1935990  87.8310860  86.5996060   6.9801970
  87.3369140  86.9964930   6.2629100  87.2224150  85.9745270   7.3739250
  71.9356940  69.3798690   9.6879190  72.4839930  69.1986740   8.9245300
  72.0012250  68.5892800  10.2235500  72.7088700  85.9704340   7.6979390
  72.1149020  85.8389040   8.4369430  72.7012540  85.1342480   7.2321490
  82.1543720  69.2636570   5.9009420  81.2803560  69.5971680   5.6982350
  82.0454470  68.7909750   6.7261290  83.0615700  71.4707440   7.2851140
  82.7329060  70.6559200   6.9052870  84.0098000  71.4277250   7.1616830
  85.5150310  87.2419480   4.2588710  85.0553280  87.9935290   3.8846730
  84.8862770  86.5225950   4.2003510  72.3400930  83.3362720   6.6487430
  71.6134990  82.7168010   6.5813380  72.4010080  83.7303330   5.7785510
  75.9446030  85.5507720   3.4336840  76.4611050  84.9395080   2.9085100
  76.5943410  86.0536500   3.9247850  78.6841530  86.4416210   4.2605820
  78.9719340  86.1870510   3.3838830  79.1964750  85.8893570   4.8511390
  79.9018540  70.1806410   4.8402330  79.1190330  70.6551910   5.1199090
  79.6081470  69.2761240   4.7315510  84.4539610  70.8829510   2.8851420
  84.8947700  70.8274610   2.0373020  84.1847200  71.7987520   2.9561600
  78.7513890  87.3632310  11.6274020  79.6781200  87.1276580  11.6709980
  78.7364320  88.1904310  11.1460050  75.9377500  70.0277060  11.3915900
  75.6561770  70.5310660  10.6276720  76.3197200  69.2298810  11.0258030
  82.5392960  69.4430640  11.9696370  82.4258410  69.7625250  12.8647890
  83.3562700  69.8443150  11.6733650  85.3191450  86.5902170  11.4515060
  86.1116770  86.0951400  11.2441020  85.6124600  87.2692310  12.0590670
  81.4451110  58.6879620  57.4305070  81.3645160  57.7734230  57.1596780
  81.0315530  59.1846690  56.7244780  79.5769150  60.4658640  59.3114340
  78.8011250  59.9859080  59.6012910  80.2282080  59.7864290  59.1370500
  83.5976580  64.8718830  58.0913470  83.1358110  64.1006070  58.4200640
  84.4102130  64.8984900  58.5965920  72.0026930  55.7380340  53.9732490
  71.1143630  56.0796310  53.8712370  72.2868120  55.5380660  53.0813320
  69.9659940  58.3385990  59.8572190  70.5376050  57.5708190  59.8575830
  69.9661480  58.6374750  58.9478800  79.8239890  67.1576840  57.7117460
  79.2051330  67.6134340  57.1411900  80.6791670  67.3128300  57.3107160
  79.0178140  63.1415830  59.3184500  78.9486420  62.2005770  59.1573630
  79.7798000  63.2317240  59.8907070  80.0483310  55.9486210  59.5453430
  80.4248130  55.0758090  59.4327100  79.9502820  56.2844910  58.6543870
  74.1788320  54.3211840  55.0070870  74.2855070  55.2215570  55.3139630
  73.2680680  54.2729810  54.7165520  83.8307430  53.4436650  56.4781770
  84.6517050  52.9533220  56.5207250  83.8641510  54.0334310  57.2313610
  76.0196050  57.2898210  59.3396050  76.5274270  57.7879180  59.9801070
  76.5509290  56.5133410  59.1635410  80.6903240  62.0416080  55.1049370
  80.0720510  62.5065530  54.5412090  81.2026490  62.7343560  55.5218880
  84.0668910  55.3837030  59.2509310  83.3624480  55.6721920  59.8312420
  84.4281070  56.1937140  58.8908870  70.0586440  62.7272610  52.4789000
  69.6814420  63.2159710  51.7473900  70.3159510  63.3997890  53.1095530
  87.1355830  54.8291820  59.6418520  86.1880740  54.8630800  59.7733950
  87.4605820  55.6430770  60.0267880  77.6675370  51.1289000  57.9374510
  77.9750350  50.5735890  57.2210010  76.7376070  51.2633460  57.7547500
  83.2190430  66.8456290  60.2281970  83.2317590  66.4418580  59.3604230
  82.6665650  67.6203580  60.1243400  84.5135850  63.5672510  55.3172140
  84.4032180  62.6246840  55.4421560  84.5104100  63.9288150  56.2034900
  80.0556130  59.1937830  54.6734630  79.1285410  59.1275210  54.9023100
  80.2080950  60.1317960  54.5589870  80.0425210  55.4654830  51.6701790
  79.1028880  55.6268790  51.7554250  80.3608470  56.1840510  51.1237780
  84.0853420  60.7558130  55.1769880  83.4665840  60.4177680  54.5296180
  84.0677870  60.1117890  55.8849070  75.6612770  59.7202570  57.4554360
  75.2569770  59.0079820  56.9600260  75.7475890  59.3755810  58.3442400
  76.1294470  63.4070130  59.6193570  75.8322760  62.8015600  58.9401350
  77.0794290  63.4447440  59.5082930  82.2618120  59.9944940  52.1842630
  82.7011400  59.1567370  52.0380450  82.9746540  60.6274340  52.2706770
  80.3713500  64.9341010  56.1523870  80.8109410  65.6765340  55.7379260
  80.3100390  65.1767580  57.0762830  85.8435260  51.2487750  50.4983670
  85.5307920  51.3414580  51.3982740  86.6047730  51.8268780  50.4481100
  72.3617400  58.6147550  54.9561010  72.2415000  59.3409640  54.3442280
  72.0518290  57.8450460  54.4788920  71.2450400  63.4862880  57.1735830
  70.8378480  63.6277470  56.3189430  72.1363410  63.2023040  56.9707040
  83.0383680  67.9210130  53.5086880  82.8784820  67.6313070  54.4068710
  82.8730390  67.1450260  52.9732110  75.5172060  67.7008660  55.2858500
  75.3414540  66.7844200  55.0726300  74.6627800  68.0595950  55.5256300
  82.7409810  65.4297690  52.0684880  82.0474970  65.4274980  51.4087160
  83.4832670  65.0057010  51.6379050  82.3059740  67.0560400  56.1433370
  82.7616690  66.2749780  56.4571990  82.6452260  67.7667220  56.6874550
  74.8281060  51.9582620  58.3384680  74.3849210  52.7392160  58.0069200
  75.3866050  52.2812510  59.0455620  77.9439880  51.5793320  53.2190510
  77.3194060  51.5753190  53.9443820  77.8570000  50.7124280  52.8226480
  76.8656960  52.5029950  60.1974280  77.1629290  53.4092780  60.1166300
  77.4142520  52.0148730  59.5833850  74.6195280  57.0816190  56.0665930
  74.3936200  56.8653360  56.9712550  73.8387810  57.5144650  55.7211900
  81.8493040  57.0879560  54.6656580  81.2501930  57.8115360  54.4820200
  82.3972650  57.0256340  53.8833030  80.4557910  55.7243100  56.6959860
  80.8487480  56.0415300  55.8828550  80.8174760  54.8454980  56.8104380
  69.4922080  52.3143900  58.9190060  69.2035130  52.8846760  59.6315040
  70.2367840  51.8348350  59.2821290  69.6792310  56.2564020  50.1292780
  69.5966980  57.1994780  50.2707770  69.3275370  56.1138930  49.2505130
  77.4790440  54.9903050  59.1963130  77.4826500  54.5493000  58.3467670
  78.3741560  55.3120380  59.3034950  73.3292820  54.8729540  58.1557340
  72.9892870  55.3504770  58.9124390  72.5670140  54.4194660  57.7958440
  77.5410590  55.9915130  52.1869890  77.6623410  55.9501610  53.1355710
  77.1559100  56.8539280  52.0316620  76.5532090  58.3016270  51.5853190
  75.9848990  57.8534520  50.9589100  77.2621090  58.6609050  51.0518340
  70.6438900  53.7948520  57.0722010  70.3585820  53.4304190  57.9100630
  70.5817760  53.0628980  56.4585150  74.0979570  62.2974460  53.8579600
  73.3241830  61.7572080  53.6978320  74.8274200  61.7781070  53.5197360
  84.8567550  61.2939820  59.6505990  85.5766670  61.7895110  59.2602100
  84.6549370  60.6157710  59.0059860  80.3177490  52.6877780  53.7935380
  79.5042100  52.1890950  53.7180690  80.1239440  53.5276030  53.3771730
  83.0325880  57.0597430  52.0897540  83.9205500  57.3714660  51.9148880
  83.0030970  56.1869680  51.6978120  74.1416970  61.9654840  57.4958410
  74.6595640  61.1623100  57.4415300  73.6900990  61.9033980  58.3375240
  79.0286470  63.2321120  52.7685710  79.3702170  63.9763350  52.2729030
  78.1999180  63.5452240  53.1310540  85.3040150  58.3709270  51.5577400
  85.2203870  58.8023490  50.7073840  86.0234340  58.8307620  51.9904220
  86.3327400  65.2251530  54.2859530  85.6903560  64.5707150  54.5603250
  85.9458060  65.6306620  53.5100200  81.9113880  62.5536960  58.1331220
  82.2637700  61.9565090  57.4732590  81.0276210  62.2281190  58.3039470
  77.9977160  63.3134650  55.5401630  78.6848290  63.8603860  55.9209220
  77.2109580  63.8575380  55.5751240  70.1369560  58.9307470  51.0318710
  71.0064410  59.2132270  51.3154630  69.6459880  59.7443340  50.9167520
  77.3004370  60.3180680  55.1526990  77.7567150  61.1285930  55.3787180
  76.9492580  60.0003820  55.9845480  73.2016150  50.6618330  55.6249510
  73.0730780  50.6536230  56.5734430  72.3778170  51.0001420  55.2740520
  84.7224780  64.1167990  50.8235880  84.4962360  63.3998430  51.4160520
  84.3320980  63.8680430  49.9857630  70.5040810  68.1434850  51.5980340
  70.8638450  68.7424190  50.9437610  70.3633150  68.6894740  52.3715370
  84.3041030  62.0339930  52.4850040  84.0162730  62.4952620  53.2727920
  85.0993200  61.5737700  52.7534260  76.5209430  65.5266050  52.4154010
  76.5119530  66.2595740  51.7998520  75.6007790  65.2797630  52.5080970
  72.1216070  60.7480940  53.1600770  71.5144020  61.4879840  53.1696070
  72.5965420  60.8380300  52.3338970  85.0610890  53.8688700  53.6445220
  84.4324050  53.9734370  52.9303450  84.5662810  54.0885480  54.4339100
  79.5069030  65.5894290  51.0779200  79.6081010  65.3858280  50.1481180
  78.6070770  65.3352570  51.2826980  77.0294920  56.1474650  55.0603100
  76.3211070  56.6160990  55.5016710  77.3139400  55.4896660  55.6948290
  81.0610350  52.8725310  56.4998890  80.9378130  52.8911440  55.5508400
  82.0094910  52.9204250  56.6197290  78.1487140  68.1080610  55.7726870
  78.4028640  68.0702000  54.8506240  77.1999620  67.9813940  55.7655120
  75.2329940  54.4559730  52.4353810  76.0820470  54.8929880  52.3694000
  74.8661210  54.7679990  53.2625870  84.1539720  59.0272490  57.3485380
  83.2129860  59.0422720  57.5233070  84.4683790  58.2408450  57.7945680
  74.1321360  60.7092090  50.9089340  74.8984630  60.5973450  51.4714770
  74.2096050  60.0130060  50.2566110  72.8268120  58.1417160  51.5922230
  72.9071710  57.1944670  51.7039630  73.7187870  58.4724040  51.6982890
  86.1565300  66.1981340  59.0239640  86.2812720  67.0212510  59.4963450
  87.0230860  65.9872070  58.6763790  73.6282830  68.2912550  58.6956770
  74.3645310  67.7428010  58.9665340  74.0123750  69.1568560  58.5562760
  70.5128310  64.3586120  54.5698280  69.5868090  64.6007260  54.5603690
  70.9784740  65.1860380  54.4483030  76.7385140  67.4642860  50.5182340
  77.5313750  67.7531690  50.0664130  76.2189490  67.0335030  49.8394820
  85.7915310  66.6912990  51.9419080  85.5056820  66.2778130  51.1273260
  85.5934860  67.6200700  51.8219600  77.2562540  62.6846270  50.3824690
  77.1513180  62.0698620  51.1086070  77.0886760  62.1612160  49.5987700
  80.4965270  61.7466300  50.9866680  79.9475370  62.1935600  51.6309420
  81.1184530  61.2415550  51.5104350  76.1640390  60.7057220  52.8831980
  76.5856810  60.5397090  53.7263370  76.2891230  59.8957450  52.3887120
  78.6768030  59.7294830  50.1309080  79.1973690  59.0143850  49.7650230
  79.3236430  60.3680700  50.4309590  75.0599290  56.7790450  49.8290140
  74.8588350  55.9157810  50.1903480  74.8891340  56.6923810  48.8911740
  82.5387600  51.5898680  52.3577020  82.8189890  50.7466580  52.7136440
  81.7653330  51.8221790  52.8715770  73.8582090  53.8791070  49.8168020
  74.1607990  53.8858500  48.9087170  74.5976680  53.5288930  50.3135680
  77.0767020  52.8225690  50.8024220  76.7289020  52.1449680  50.2226670
  77.2779790  52.3615200  51.6167610  79.2416060  67.8106440  52.4210820
  80.1366850  68.1491410  52.4429580  79.2733690  67.0885850  51.7935100
  72.8812220  63.1833490  50.6497820  73.3187090  63.7263160  51.3055400
  73.3659950  62.3580440  50.6594160  70.0958020  65.9722520  58.1018080
  70.4261030  65.1043580  57.8696720  70.5249020  66.1781040  58.9323040
  74.6919940  64.3031530  55.7620050  74.3915480  64.1796500  56.6623960
  74.5857430  63.4440120  55.3535780  87.4611860  64.0827930  50.4646730
  86.6304820  64.1504580  50.9353960  87.6383690  64.9732050  50.1613590
  86.9168320  60.8275410  52.9680930  87.6787230  61.3972060  53.0740620
  86.9322690  60.2602610  53.7389240  70.4172660  59.3513340  57.1988590
  69.7621500  59.0824980  56.5548290  71.2550610  59.2417820  56.7490570
  87.9228290  61.6825510  57.8122860  88.2937120  60.8992830  57.4058830
  88.5630220  62.3714610  57.6340160  86.9687490  61.1209780  50.1253450
  87.2436330  62.0288660  49.9972670  86.7798230  61.0572310  51.0615440
  83.3663100  54.1454630  51.4207080  83.7847980  53.9585610  50.5803740
  83.0599160  53.2933680  51.7310010  86.8652830  59.0578770  55.1182880
  86.4896430  58.2906700  54.6864170  86.1355950  59.4401470  55.6057810
  69.6310740  56.5612270  53.1413920  68.7274820  56.8242470  52.9665580
  70.1151360  56.8323440  52.3613880  86.1403790  57.2836260  58.4190120
  86.6641270  56.7898910  57.7880290  86.7263210  57.4186620  59.1637690
  72.1737950  55.6177810  51.0508300  72.8829650  55.1961030  50.5655580
  71.4577890  55.6853040  50.4191650  71.8212110  51.6717140  50.0910950
  72.5440240  52.2126080  50.4092170  72.0936630  51.3980560  49.2152490
  85.6303760  56.5409610  54.3582530  86.1262880  56.3080480  55.1431410
  85.4319830  55.7021450  53.9420170  87.0590920  55.1770560  56.8920210
  86.9490200  55.0226600  57.8302480  87.8198510  54.6491500  56.6495620
  87.9481190  53.0078480  50.1326350  88.8730500  52.8759660  49.9244640
  87.9256980  53.0871300  51.0862800  88.0219680  53.7789140  52.7583060
  87.2271180  53.7134260  53.2875970  88.2262960  54.7139780  52.7468410
  84.9638100  67.8180690  56.7521450  85.5597170  67.4965260  56.0755870
  85.2216250  67.3452510  57.5434720  75.9446030  66.7764230  59.7567310
  76.4611050  66.1651590  59.2315570  76.5943410  67.2793010  60.2478320
  84.4539610  52.1086020  59.2081890  84.8947700  52.0531120  58.3603490
  84.1847200  53.0244030  59.2792070  86.3178180  51.7401260  57.2190710
  86.2566580  50.7962480  57.0721730  87.0970210  51.8481350  57.7644170
  70.6230930  67.8793620  56.1814660  70.4552970  67.2464300  56.8796550
  69.7565440  68.0853020  55.8308850  71.2458950  51.7110400  53.6846520
  72.0038310  51.8239280  53.1110550  70.7836120  52.5479600  53.6389950
  77.7872760  53.8249670  56.6748830  76.9747270  53.4506560  56.3344710
  78.2914400  53.0694750  56.9770020  82.2897740  50.4892120  57.9131900
  82.8927110  51.0612330  58.3880420  81.5490730  51.0531560  57.6905800
  85.4332340  50.8913680  53.1872180  85.6282970  51.7897130  53.4539610
  84.6462210  50.6600760  53.6805130  72.2293630  66.5726850  53.6264800
  71.7041250  66.9534880  52.9226760  72.1538210  67.1977620  54.3474510
  73.6184100  52.2374450  52.2248490  74.1476860  51.4504250  52.0956440
  74.2512420  52.9165640  52.4584020  75.8121940  51.9749590  55.2793880
  75.1824680  51.2736900  55.4464010  75.2727080  52.7353720  55.0627040
  86.9858950  68.1314390  54.9478740  87.1611140  67.4452130  54.3039660
  86.2880520  68.6561440  54.5555410  74.8286600  68.5209230  52.5014050
  75.5605420  68.2368510  51.9537940  75.0880270  68.2822510  53.3913430
  73.9901390  64.6373960  52.5060380  73.3610270  65.1059060  53.0546210
  74.1049220  63.7923180  52.9406570  71.2084810  53.7470350  42.8697630
  71.0287650  52.8496100  43.1500390  70.8064890  54.2942220  43.5444580
  80.0483310  55.9486210  40.7709940  80.4248130  55.0758090  40.6583610
  79.9502820  56.2844910  39.8800380  74.3032150  51.9296770  44.8315980
  74.3050590  52.4469160  44.0261880  73.4736460  51.4526950  44.8085910
  73.9847480  53.6406730  42.8386430  74.3264290  54.4848780  42.5440300
  73.0463290  53.7890470  42.9551770  74.7654100  63.5372750  44.8238660
  75.3828100  64.2123830  44.5423110  73.9047220  63.9460730  44.7326160
  83.5279980  56.9342670  43.8192200  83.1151160  57.7596380  44.0732190
  82.7955930  56.3487710  43.6268560  75.2212900  63.1451820  47.4957880
  74.3241430  63.3691790  47.7431280  75.2465770  63.2686760  46.5469280
  74.0484120  60.0165140  46.0715250  73.9091890  60.8887940  46.4402650
  73.1665480  59.6737950  45.9263190  75.8464470  65.9586840  48.2800400
  75.8179900  66.3629790  47.4128830  75.6829440  65.0297200  48.1172000
  85.8435260  51.2487750  31.7240180  85.5307920  51.3414580  32.6239250
  86.6047730  51.8268780  31.6737610  87.7979290  66.7413940  49.5764570
  88.2739010  67.2196830  50.2553650  88.4186450  66.6731430  48.8510070
  87.2012540  63.9326790  46.7364580  87.3275600  63.6938670  45.8181760
  87.2433920  63.1011330  47.2086660  82.7409810  65.4297690  33.2941390
  82.0474970  65.4274980  32.6343670  83.4832670  65.0057010  32.8635560
  87.0536550  55.9859250  47.7014320  86.4380820  56.4938920  47.1729780
  86.7332970  55.0857580  47.6440260  79.1150870  54.8251140  45.1676510
  78.6530240  55.0334160  45.9796450  78.7128980  54.0110490  44.8647180
  84.1155380  56.0460090  46.2973170  83.2648970  55.7465840  46.6182240
  83.9557170  56.2902100  45.3856990  81.2105090  57.5461840  48.3971960
  81.5358500  56.7125590  48.0574190  81.9985420  58.0690360  48.5450290
  77.0594490  57.9801770  47.9582710  76.9638090  57.0396500  47.8083110
  77.9026470  58.2016840  47.5630780  72.1905030  54.3915440  46.1116490
  71.7968420  55.2390650  46.3189270  71.5023430  53.7541810  46.3025130
  78.7650080  54.4750410  49.1813230  78.0748400  54.2822610  49.8159320
  79.5082380  54.7585050  49.7137530  77.4790440  54.9903050  40.4219640
  77.4826500  54.5493000  39.5724180  78.3741560  55.3120380  40.5291460
  71.6301270  62.2028290  46.6876430  71.2456060  61.5621960  47.2859390
  71.9413460  62.9064410  47.2571160  77.7798410  59.0504830  42.1685050
  78.1468540  58.5763400  42.9146390  77.5903470  59.9246400  42.5093390
  75.5697780  58.0913470  44.4869260  75.2654850  58.9705450  44.7119620
  76.5244240  58.1513260  44.5226700  74.0979570  62.2974460  35.0836110
  73.3241830  61.7572080  34.9234830  74.8274200  61.7781070  34.7453870
  80.2386350  61.3648880  46.7631500  80.1723660  60.4444550  46.5089090
  79.6091490  61.4624320  47.4776140  79.0286470  63.2321120  33.9942220
  79.3702170  63.9763350  33.4985540  78.1999180  63.5452240  34.3567050
  71.6261510  58.9316210  45.6340620  71.2676450  59.5970060  46.2213960
  71.3316070  58.0999760  46.0053240  74.8274630  59.3900450  48.5180170
  74.5274770  59.5357630  47.6207990  75.5985870  58.8305740  48.4253560
  80.1703080  64.1869450  46.5135300  80.1847620  63.2550410  46.2954210
  79.4628180  64.2729210  47.1525070  86.3814290  60.8276790  45.8603880
  85.6562480  61.4205570  45.6633270  86.9089750  60.8200330  45.0617250
  84.7224780  64.1167990  32.0492390  84.4962360  63.3998430  32.6417030
  84.3320980  63.8680430  31.2114140  82.6506680  64.6314270  45.5289310
  82.9862920  65.2180960  46.2067230  81.7307020  64.5006980  45.7587100
  70.5040810  68.1434850  32.8236850  70.8638450  68.7424190  32.1694120
  70.3633150  68.6894740  33.5971880  70.2010080  52.4209450  46.3112720
  69.4868600  52.6206370  46.9165330  70.6205120  51.6449020  46.6827520
  84.3041030  62.0339930  33.7106550  84.0162730  62.4952620  34.4984430
  85.0993200  61.5737700  33.9790770  70.4882670  66.4089710  47.2979250
  70.5973790  65.4684450  47.1574640  69.8363230  66.6744460  46.6492980
  78.4795260  64.6805600  48.6977370  78.1592130  63.9614840  49.2423060
  77.8053620  65.3560670  48.7713430  76.5209430  65.5266050  33.6410520
  76.5119530  66.2595740  33.0255030  75.6007790  65.2797630  33.7337480
  79.5069030  65.5894290  32.3035710  79.6081010  65.3858280  31.3737690
  78.6070770  65.3352570  32.5083490  78.6550850  57.5671350  44.2852140
  79.1536100  58.0417170  44.9503990  78.7973800  56.6434870  44.4922170
  78.1487140  68.1080610  36.9983380  78.4028640  68.0702000  36.0762750
  77.1999620  67.9813940  36.9911630  70.5128310  64.3586120  35.7954790
  69.5868090  64.6007260  35.7860200  70.9784740  65.1860380  35.6739540
  72.6341110  67.4758620  49.1098860  73.4353840  67.7970670  49.5234260
  72.1192930  67.1154200  49.8318770  76.7385140  67.4642860  31.7438850
  77.5313750  67.7531690  31.2920640  76.2189490  67.0335030  31.0651330
  81.4705740  63.5838490  49.0574270  80.8643900  63.6070090  48.3170020
  81.1659850  62.8521530  49.5941520  82.9006110  67.3118780  47.6683680
  83.8527860  67.2276800  47.6183920  82.7534330  67.9760490  48.3417470
  85.7915310  66.6912990  33.1675590  85.5056820  66.2778130  32.3529770
  85.5934860  67.6200700  33.0476110  70.3538920  59.9632080  48.0534910
  70.8577940  59.3839360  48.6251140  69.6146340  60.2472310  48.5911280
  77.4076860  61.3703070  47.5870430  76.6422530  61.9388070  47.5025100
  77.5892820  61.0779280  46.6938660  84.5500210  63.1008400  48.1445450
  85.2909680  63.4384160  47.6412910  83.7872890  63.2700460  47.5915220
  72.3862000  58.1061670  48.9484980  72.4267340  57.8075540  49.8570210
  73.2407500  58.5069280  48.7892500  74.3267810  56.6853770  46.9159470
  73.7964270  56.1944720  46.2882810  74.9955880  57.1137970  46.3817400
  83.2245870  61.1523230  46.6800660  83.6386890  61.3068310  47.5291080
  82.2896870  61.2778450  46.8426440  83.6968040  58.4919390  48.6839810
  84.2788810  57.7371710  48.5960290  83.8729810  59.0226830  47.9071290
  74.8140110  53.6516140  46.9956760  74.7196980  53.0336890  46.2707630
  74.2337500  54.3782430  46.7686670  77.9861100  61.1043710  44.6496590
  78.4049210  61.9476440  44.4772830  77.0669730  61.2415750  44.4203370
  80.3225000  58.8359890  46.0334430  80.4421210  58.2401030  46.7729270
  81.1819000  58.8729580  45.6135730  82.6612900  59.3897080  44.6096940
  82.1348120  59.9139700  44.0062080  83.0044240  60.0224470  45.2406670
  75.8368520  67.4096720  45.7654320  75.2989610  68.1342780  45.4463020
  76.0902480  66.9327060  44.9751660  77.0893770  55.3781240  47.2910250
  77.6793460  55.0697090  47.9788070  76.2714010  54.9060990  47.4470150
  81.9087200  54.9947050  47.5243270  81.2202720  54.3328590  47.4593260
  82.6293220  54.5485320  47.9691730  79.2416060  67.8106440  33.6467330
  80.1366850  68.1491410  33.6686090  79.2733690  67.0885850  33.0191610
  72.8812220  63.1833490  31.8754330  73.3187090  63.7263160  32.5311910
  73.3659950  62.3580440  31.8850670  86.2210410  66.3410110  46.3533530
  85.6212400  66.4002670  45.6097450  86.3504310  65.4015090  46.4830380
  87.4611860  64.0827930  31.6903240  86.6304820  64.1504580  32.1610470
  87.6383690  64.9732050  31.3870100  84.9062050  63.0662090  44.4509690
  84.0921890  63.4959250  44.7135480  85.3136250  63.6780500  43.8378740
  86.9687490  61.1209780  31.3509960  87.2436330  62.0288660  31.2229180
  86.7798230  61.0572310  32.2871950  86.2552450  58.2050290  45.9778910
  86.0238540  57.9763040  45.0776860  86.5157000  59.1249840  45.9323800
  71.0064590  56.6475000  46.8706860  70.1120640  56.6141760  47.2100570
  71.5462140  56.8461790  47.6358110  84.6940520  53.4306720  48.7558610
  85.5710700  53.4390120  49.1392610  84.7061360  52.6937560  48.1450960
  86.3193510  57.3676130  43.1666180  85.3696220  57.3339670  43.2811170
  86.5006520  58.2776240  42.9315950  72.8700670  64.2498600  48.1268590
  72.8270300  63.8791510  49.0083050  73.0011680  65.1876170  48.2670410
  78.7761120  52.2690880  47.4834820  78.7150010  52.8612710  48.2330230
  79.7161500  52.1616840  47.3385080  81.4135680  51.9260940  47.1227110
  82.0276090  52.2440230  46.4608190  81.9585240  51.4409530  47.7422970
  71.9356940  50.6055200  47.2366170  72.4839930  50.4243250  46.4732280
  72.0012250  49.8149310  47.7722480  70.6230930  67.8793620  37.4071170
  70.4552970  67.2464300  38.1053060  69.7565440  68.0853020  37.0565360
  78.7513890  68.5888820  49.1761000  79.6781200  68.3533090  49.2196960
  78.7364320  69.4160820  48.6947030  75.9377500  51.2533570  48.9402880
  75.6561770  51.7567170  48.1763700  76.3197200  50.4555320  48.5745010
  74.8286600  68.5209230  33.7270560  75.5605420  68.2368510  33.1794450
  75.0880270  68.2822510  34.6169940  73.9901390  64.6373960  33.7316890
  73.3610270  65.1059060  34.2802720  74.1049220  63.7923180  34.1663080
  82.5392960  50.6687150  49.5183350  82.4258410  50.9881760  50.4134870
  83.3562700  51.0699660  49.2220630  85.3191450  67.8158680  49.0002040
  86.1116770  67.3207910  48.7928000  85.6124600  68.4948820  49.6077650
  81.4451110  58.6879620  19.8818090  81.3645160  57.7734230  19.6109800
  81.0315530  59.1846690  19.1757800  83.5976580  64.8718830  20.5426490
  83.1358110  64.1006070  20.8713660  84.4102130  64.8984900  21.0478940
  73.5736240  64.8118540  22.8361140  73.8764280  63.9216280  22.6571360
  74.3179830  65.3688760  22.6083390  79.8239890  67.1576840  20.1630480
  79.2051330  67.6134340  19.5924920  80.6791670  67.3128300  19.7620180
  79.0178140  63.1415830  21.7697520  78.9486420  62.2005770  21.6086650
  79.7798000  63.2317240  22.3420090  80.0483310  55.9486210  21.9966450
  80.4248130  55.0758090  21.8840120  79.9502820  56.2844910  21.1056890
  80.6903240  62.0416080  17.5562390  80.0720510  62.5065530  16.9925110
  81.2026490  62.7343560  17.9731900  70.0586440  62.7272610  14.9302020
  69.6814420  63.2159710  14.1986920  70.3159510  63.3997890  15.5608550
  85.6831690  65.0012160  23.9649810  84.9995210  65.6711270  23.9566480
  86.2225980  65.1992810  23.1994670  83.2190430  66.8456290  22.6794990
  83.2317590  66.4418580  21.8117250  82.6665650  67.6203580  22.5756420
  84.5135850  63.5672510  17.7685160  84.4032180  62.6246840  17.8934580
  84.5104100  63.9288150  18.6547920  82.6175870  61.7486130  24.0077600
  83.0344660  61.5346240  23.1731060  83.3415690  62.0058920  24.5786220
  80.0556130  59.1937830  17.1247650  79.1285410  59.1275210  17.3536120
  80.2080950  60.1317960  17.0102890  80.0425210  55.4654830  14.1214810
  79.1028880  55.6268790  14.2067270  80.3608470  56.1840510  13.5750800
  84.0853420  60.7558130  17.6282900  83.4665840  60.4177680  16.9809200
  84.0677870  60.1117890  18.3362090  84.2180080  66.9802000  25.7329690
  83.7410640  67.7874190  25.5402300  83.5341870  66.3280330  25.8855900
  75.2212900  63.1451820  28.7214390  74.3241430  63.3691790  28.9687790
  75.2465770  63.2686760  27.7725790  82.2618120  59.9944940  14.6355650
  82.7011400  59.1567370  14.4893470  82.9746540  60.6274340  14.7219790
  80.3713500  64.9341010  18.6036890  80.8109410  65.6765340  18.1892280
  80.3100390  65.1767580  19.5275850  75.8464470  65.9586840  29.5056910
  75.8179900  66.3629790  28.6385340  75.6829440  65.0297200  29.3428510
  85.8435260  51.2487750  12.9496690  85.5307920  51.3414580  13.8495760
  86.6047730  51.8268780  12.8994120  87.7979290  66.7413940  30.8021080
  88.2739010  67.2196830  31.4810160  88.4186450  66.6731430  30.0766580
  70.0002770  61.7862690  23.2142670  70.0783190  61.9211460  22.2698390
  70.6144450  61.0778580  23.4070790  71.2450400  63.4862880  19.6248850
  70.8378480  63.6277470  18.7702450  72.1363410  63.2023040  19.4220060
  87.2012540  63.9326790  27.9621090  87.3275600  63.6938670  27.0438270
  87.2433920  63.1011330  28.4343170  81.0629280  67.6354790  26.5315900
  81.5773950  67.5462800  27.3338330  80.2198360  67.9814490  26.8243810
  83.0383680  67.9210130  15.9599900  82.8784820  67.6313070  16.8581730
  82.8730390  67.1450260  15.4245130  75.5172060  67.7008660  17.7371520
  75.3414540  66.7844200  17.5239320  74.6627800  68.0595950  17.9769320
  82.7409810  65.4297690  14.5197900  82.0474970  65.4274980  13.8600180
  83.4832670  65.0057010  14.0892070  82.3059740  67.0560400  18.5946390
  82.7616690  66.2749780  18.9085010  82.6452260  67.7667220  19.1387570
  70.0562290  62.8276860  25.7537130  70.2193330  62.3582220  24.9356500
  70.5214740  62.3200420  26.4185970  77.9439880  51.5793320  15.6703530
  77.3194060  51.5753190  16.3956840  77.8570000  50.7124280  15.2739500
  81.8493040  57.0879560  17.1169600  81.2501930  57.8115360  16.9333220
  82.3972650  57.0256340  16.3346050  80.4557910  55.7243100  19.1472880
  80.8487480  56.0415300  18.3341570  80.8174760  54.8454980  19.2617400
  69.6792310  56.2564020  12.5805800  69.5966980  57.1994780  12.7220790
  69.3275370  56.1138930  11.7018150  77.5410590  55.9915130  14.6382910
  77.6623410  55.9501610  15.5868730  77.1559100  56.8539280  14.4829640
  76.5532090  58.3016270  14.0366210  75.9848990  57.8534520  13.4102120
  77.2621090  58.6609050  13.5031360  84.9309710  51.1814710  28.4932980
  85.2555480  50.4504370  29.0190960  84.9666220  50.8628350  27.5913970
  71.6301270  62.2028290  27.9132940  71.2456060  61.5621960  28.5115900
  71.9413460  62.9064410  28.4827670  74.0979570  62.2974460  16.3092620
  73.3241830  61.7572080  16.1491340  74.8274200  61.7781070  15.9710380
  84.8567550  61.2939820  22.1019010  85.5766670  61.7895110  21.7115120
  84.6549370  60.6157710  21.4572880  83.0325880  57.0597430  14.5410560
  83.9205500  57.3714660  14.3661900  83.0030970  56.1869680  14.1491140
  74.1416970  61.9654840  19.9471430  74.6595640  61.1623100  19.8928320
  73.6900990  61.9033980  20.7888260  79.0286470  63.2321120  15.2198730
  79.3702170  63.9763350  14.7242050  78.1999180  63.5452240  15.5823560
  80.1703080  64.1869450  27.7391810  80.1847620  63.2550410  27.5210720
  79.4628180  64.2729210  28.3781580  85.3040150  58.3709270  14.0090420
  85.2203870  58.8023490  13.1586860  86.0234340  58.8307620  14.4417240
  86.3814290  60.8276790  27.0860390  85.6562480  61.4205570  26.8889780
  86.9089750  60.8200330  26.2873760  86.3327400  65.2251530  16.7372550
  85.6903560  64.5707150  17.0116270  85.9458060  65.6306620  15.9613220
  81.9113880  62.5536960  20.5844240  82.2637700  61.9565090  19.9245610
  81.0276210  62.2281190  20.7552490  77.9977160  63.3134650  17.9914650
  78.6848290  63.8603860  18.3722240  77.2109580  63.8575380  18.0264260
  70.1369560  58.9307470  13.4831730  71.0064410  59.2132270  13.7667650
  69.6459880  59.7443340  13.3680540  77.3004370  60.3180680  17.6040010
  77.7567150  61.1285930  17.8300200  76.9492580  60.0003820  18.4358500
  79.6036980  65.8287020  24.8332310  80.2479200  66.0346400  25.5105730
  79.9666420  65.0675420  24.3803160  80.8769060  63.8319370  23.5509760
  81.5191290  63.1312530  23.6641930  81.4018410  64.6117810  23.3706650
  84.7224780  64.1167990  13.2748900  84.4962360  63.3998430  13.8673540
  84.3320980  63.8680430  12.4370650  82.6506680  64.6314270  26.7545820
  82.9862920  65.2180960  27.4323740  81.7307020  64.5006980  26.9843610
  70.5040810  68.1434850  14.0493360  70.8638450  68.7424190  13.3950630
  70.3633150  68.6894740  14.8228390  84.3041030  62.0339930  14.9363060
  84.0162730  62.4952620  15.7240940  85.0993200  61.5737700  15.2047280
  70.4882670  66.4089710  28.5235760  70.5973790  65.4684450  28.3831150
  69.8363230  66.6744460  27.8749490  78.4795260  64.6805600  29.9233880
  78.1592130  63.9614840  30.4679570  77.8053620  65.3560670  29.9969940
  76.5209430  65.5266050  14.8667030  76.5119530  66.2595740  14.2511540
  75.6007790  65.2797630  14.9593990  72.1216070  60.7480940  15.6113790
  71.5144020  61.4879840  15.6209090  72.5965420  60.8380300  14.7851990
  81.6948860  54.9131760  25.2870680  82.0629680  54.0926970  25.6150250
  80.8347060  54.9733650  25.7026330  79.5069030  65.5894290  13.5292220
  79.6081010  65.3858280  12.5994200  78.6070770  65.3352570  13.7340000
  78.1487140  68.1080610  18.2239890  78.4028640  68.0702000  17.3019260
  77.1999620  67.9813940  18.2168140  75.2329940  54.4559730  14.8866830
  76.0820470  54.8929880  14.8207020  74.8661210  54.7679990  15.7138890
  74.1321360  60.7092090  13.3602360  74.8984630  60.5973450  13.9227790
  74.2096050  60.0130060  12.7079130  72.8268120  58.1417160  14.0435250
  72.9071710  57.1944670  14.1552650  73.7187870  58.4724040  14.1495910
  86.1565300  66.1981340  21.4752660  86.2812720  67.0212510  21.9476470
  87.0230860  65.9872070  21.1276810  73.6282830  68.2912550  21.1469790
  74.3645310  67.7428010  21.4178360  74.0123750  69.1568560  21.0075780
  70.5128310  64.3586120  17.0211300  69.5868090  64.6007260  17.0116710
  70.9784740  65.1860380  16.8996050  72.6341110  67.4758620  30.3355370
  73.4353840  67.7970670  30.7490770  72.1192930  67.1154200  31.0575280
  76.7385140  67.4642860  12.9695360  77.5313750  67.7531690  12.5177150
  76.2189490  67.0335030  12.2907840  81.4705740  63.5838490  30.2830780
  80.8643900  63.6070090  29.5426530  81.1659850  62.8521530  30.8198030
  82.9006110  67.3118780  28.8940190  83.8527860  67.2276800  28.8440430
  82.7534330  67.9760490  29.5673980  85.7915310  66.6912990  14.3932100
  85.5056820  66.2778130  13.5786280  85.5934860  67.6200700  14.2732620
  77.2562540  62.6846270  12.8337710  77.1513180  62.0698620  13.5599090
  77.0886760  62.1612160  12.0500720  80.4965270  61.7466300  13.4379700
  79.9475370  62.1935600  14.0822440  81.1184530  61.2415550  13.9617370
  84.5500210  63.1008400  29.3701960  85.2909680  63.4384160  28.8669420
  83.7872890  63.2700460  28.8171730  76.1640390  60.7057220  15.3345000
  76.5856810  60.5397090  16.1776390  76.2891230  59.8957450  14.8400140
  78.6768030  59.7294830  12.5822100  79.1973690  59.0143850  12.2163250
  79.3236430  60.3680700  12.8822610  77.5801550  52.2089380  25.2540660
  77.1318850  52.2313640  24.4086210  76.9466750  51.8108400  25.8510960
  75.0599290  56.7790450  12.2803160  74.8588350  55.9157810  12.6416500
  74.8891340  56.6923810  11.3424760  75.8368520  67.4096720  26.9910830
  75.2989610  68.1342780  26.6719530  76.0902480  66.9327060  26.2008170
  82.5387600  51.5898680  14.8090040  82.8189890  50.7466580  15.1649460
  81.7653330  51.8221790  15.3228790  73.8582090  53.8791070  12.2681040
  74.1607990  53.8858500  11.3600190  74.5976680  53.5288930  12.7648700
  78.6930730  68.6447930  27.2497480  78.6189430  69.5483070  27.5569850
  77.7909570  68.3259830  27.2219550  77.0767020  52.8225690  13.2537240
  76.7289020  52.1449680  12.6739690  77.2779790  52.3615200  14.0680630
  79.2416060  67.8106440  14.8723840  80.1366850  68.1491410  14.8942600
  79.2733690  67.0885850  14.2448120  72.8812220  63.1833490  13.1010840
  73.3187090  63.7263160  13.7568420  73.3659950  62.3580440  13.1107180
  70.0958020  65.9722520  20.5531100  70.4261030  65.1043580  20.3209740
  70.5249020  66.1781040  21.3836060  74.6919940  64.3031530  18.2133070
  74.3915480  64.1796500  19.1136980  74.5857430  63.4440120  17.8048800
  70.5848230  66.8393110  23.2912730  70.1479220  67.0193910  24.1236880
  71.1525910  67.5967730  23.1494450  86.2210410  66.3410110  27.5790040
  85.6212400  66.4002670  26.8353960  86.3504310  65.4015090  27.7086890
  87.4611860  64.0827930  12.9159750  86.6304820  64.1504580  13.3866980
  87.6383690  64.9732050  12.6126610  86.9168320  60.8275410  15.4193950
  87.6787230  61.3972060  15.5253640  86.9322690  60.2602610  16.1902260
  87.9228290  61.6825510  20.2635880  88.2937120  60.8992830  19.8571850
  88.5630220  62.3714610  20.0853180  84.9062050  63.0662090  25.6766200
  84.0921890  63.4959250  25.9391990  85.3136250  63.6780500  25.0635250
  86.9687490  61.1209780  12.5766470  87.2436330  62.0288660  12.4485690
  86.7798230  61.0572310  13.5128460  83.3663100  54.1454630  13.8720100
  83.7847980  53.9585610  13.0316760  83.0599160  53.2933680  14.1823030
  86.8652830  59.0578770  17.5695900  86.4896430  58.2906700  17.1377190
  86.1355950  59.4401470  18.0570830  84.6940520  53.4306720  29.9815120
  85.5710700  53.4390120  30.3649120  84.7061360  52.6937560  29.3707470
  69.6310740  56.5612270  15.5926940  68.7274820  56.8242470  15.4178600
  70.1151360  56.8323440  14.8126900  72.1737950  55.6177810  13.5021320
  72.8829650  55.1961030  13.0168600  71.4577890  55.6853040  12.8704670
  71.8212110  51.6717140  12.5423970  72.5440240  52.2126080  12.8605190
  72.0936630  51.3980560  11.6665510  87.9481190  53.0078480  12.5839370
  88.8730500  52.8759660  12.3757660  87.9256980  53.0871300  13.5375820
  88.0219680  53.7789140  15.2096080  87.2271180  53.7134260  15.7388990
  88.2262960  54.7139780  15.1981430  84.9638100  67.8180690  19.2034470
  85.5597170  67.4965260  18.5268890  85.2216250  67.3452510  19.9947740
  71.2636300  51.0779000  25.1871910  70.9151120  51.5342820  25.9530090
  70.9324000  50.1836130  25.2694340  72.8700670  64.2498600  29.3525100
  72.8270300  63.8791510  30.2339560  73.0011680  65.1876170  29.4926920
  76.5706700  65.8058190  24.9534820  76.3298060  66.0732750  24.0665340
  77.5109340  65.9763920  25.0085680  78.7761120  52.2690880  28.7091330
  78.7150010  52.8612710  29.4586740  79.7161500  52.1616840  28.5641590
  81.4135680  51.9260940  28.3483620  82.0276090  52.2440230  27.6864700
  81.9585240  51.4409530  28.9679480  87.8310860  67.8252570  25.7545460
  87.3369140  68.2221440  25.0372590  87.2224150  67.2001780  26.1482740
  71.9356940  50.6055200  28.4622680  72.4839930  50.4243250  27.6988790
  72.0012250  49.8149310  28.9978990  72.7088700  67.1960850  26.4722880
  72.1149020  67.0645550  27.2112920  72.7012540  66.3598990  26.0064980
  83.0615700  52.6963950  26.0594630  82.7329060  51.8815710  25.6796360
  84.0098000  52.6533760  25.9360320  85.5150310  68.4675990  23.0332200
  85.0553280  69.2191800  22.6590220  84.8862770  67.7482460  22.9747000
  72.3400930  64.5619230  25.4230920  71.6134990  63.9424520  25.3556870
  72.4010080  64.9559840  24.5529000  75.9446030  66.7764230  22.2080330
  76.4611050  66.1651590  21.6828590  76.5943410  67.2793010  22.6991340
  78.6841530  67.6672720  23.0349310  78.9719340  67.4127020  22.1582320
  79.1964750  67.1150080  23.6254880  70.6230930  67.8793620  18.6327680
  70.4552970  67.2464300  19.3309570  69.7565440  68.0853020  18.2821870
  77.7872760  53.8249670  19.1261850  76.9747270  53.4506560  18.7857730
  78.2914400  53.0694750  19.4283040  72.2293630  66.5726850  16.0777820
  71.7041250  66.9534880  15.3739780  72.1538210  67.1977620  16.7987530
  73.6184100  52.2374450  14.6761510  74.1476860  51.4504250  14.5469460
  74.2512420  52.9165640  14.9097040  78.7513890  68.5888820  30.4017510
  79.6781200  68.3533090  30.4453470  78.7364320  69.4160820  29.9203540
  86.9858950  68.1314390  17.3991760  87.1611140  67.4452130  16.7552680
  86.2880520  68.6561440  17.0068430  74.8286600  68.5209230  14.9527070
  75.5605420  68.2368510  14.4050960  75.0880270  68.2822510  15.8426450
  73.9901390  64.6373960  14.9573400  73.3610270  65.1059060  15.5059230
  74.1049220  63.7923180  15.3919590  85.3191450  67.8158680  30.2258550
  86.1116770  67.3207910  30.0184510  85.6124600  68.4948820  30.8334160
  79.5769150  60.4658640   2.9883870  78.8011250  59.9859080   3.2782440
  80.2282080  59.7864290   2.8140030  73.5934980  60.7778450   3.8659630
  72.7619860  60.5227160   4.2656140  74.2015960  60.8489220   4.6017550
  83.5976580  64.8718830   1.7683000  83.1358110  64.1006070   2.0970170
  84.4102130  64.8984900   2.2735450  73.5736240  64.8118540   4.0617650
  73.8764280  63.9216280   3.8827870  74.3179830  65.3688760   3.8339900
  69.9659940  58.3385990   3.5341720  70.5376050  57.5708190   3.5345360
  69.9661480  58.6374750   2.6248330  79.0178140  63.1415830   2.9954030
  78.9486420  62.2005770   2.8343160  79.7798000  63.2317240   3.5676600
  71.2084810  53.7470350   5.3210650  71.0287650  52.8496100   5.6013410
  70.8064890  54.2942220   5.9957600  80.0483310  55.9486210   3.2222960
  80.4248130  55.0758090   3.1096630  79.9502820  56.2844910   2.3313400
  71.8271480  56.2430850   3.9292990  72.5081590  56.5069220   4.5480390
  71.5119530  55.4031720   4.2631000  76.0196050  57.2898210   3.0165580
  76.5274270  57.7879180   3.6570600  76.5509290  56.5133410   2.8404940
  88.1206980  55.4603400   6.7194930  87.4159150  55.8485110   6.2010040
  88.3864900  56.1553690   7.3215860  74.3032150  51.9296770   7.2829000
  74.3050590  52.4469160   6.4774900  73.4736460  51.4526950   7.2598930
  75.5535000  61.5691950   5.4602500  75.2204380  62.1960870   6.1023570
  75.7301680  62.0953830   4.6804170  84.0668910  55.3837030   2.9278840
  83.3624480  55.6721920   3.5081950  84.4281070  56.1937140   2.5678400
  73.9847480  53.6406730   5.2899450  74.3264290  54.4848780   4.9953320
  73.0463290  53.7890470   5.4064790  74.7654100  63.5372750   7.2751680
  75.3828100  64.2123830   6.9936130  73.9047220  63.9460730   7.1839180
  85.6831690  65.0012160   5.1906320  84.9995210  65.6711270   5.1822990
  86.2225980  65.1992810   4.4251180  87.1355830  54.8291820   3.3188050
  86.1880740  54.8630800   3.4503480  87.4605820  55.6430770   3.7037410
  83.2190430  66.8456290   3.9051500  83.2317590  66.4418580   3.0373760
  82.6665650  67.6203580   3.8012930  82.6175870  61.7486130   5.2334110
  83.0344660  61.5346240   4.3987570  83.3415690  62.0058920   5.8042730
  86.5637970  60.1473350   5.3250350  85.7356600  60.2166440   4.8500480
  87.1588450  60.7327660   4.8566180  83.5279980  56.9342670   6.2705220
  83.1151160  57.7596380   6.5245210  82.7955930  56.3487710   6.0781580
  76.1294470  63.4070130   3.2963100  75.8322760  62.8015600   2.6170880
  77.0794290  63.4447440   3.1852460  74.3741390  56.4945780   4.9122930
  74.9255980  56.6041120   4.1376180  74.8884900  56.8683380   5.6278160
  84.2180080  66.9802000   6.9586200  83.7410640  67.7874190   6.7658810
  83.5341870  66.3280330   7.1112410  75.2212900  63.1451820   9.9470900
  74.3241430  63.3691790  10.1944300  75.2465770  63.2686760   8.9982300
  74.0484120  60.0165140   8.5228270  73.9091890  60.8887940   8.8915670
  73.1665480  59.6737950   8.3776210  75.8464470  65.9586840  10.7313420
  75.8179900  66.3629790   9.8641850  75.6829440  65.0297200  10.5685020
  87.7979290  66.7413940  12.0277590  88.2739010  67.2196830  12.7066670
  88.4186450  66.6731430  11.3023090  70.0002770  61.7862690   4.4399180
  70.0783190  61.9211460   3.4954900  70.6144450  61.0778580   4.6327300
  87.2012540  63.9326790   9.1877600  87.3275600  63.6938670   8.2694780
  87.2433920  63.1011330   9.6599680  81.0629280  67.6354790   7.7572410
  81.5773950  67.5462800   8.5594840  80.2198360  67.9814490   8.0500320
  87.0536550  55.9859250  10.1527340  86.4380820  56.4938920   9.6242800
  86.7332970  55.0857580  10.0953280  70.0562290  62.8276860   6.9793640
  70.2193330  62.3582220   6.1613010  70.5214740  62.3200420   7.6442480
  79.1150870  54.8251140   7.6189530  78.6530240  55.0334160   8.4309470
  78.7128980  54.0110490   7.3160200  84.1155380  56.0460090   8.7486190
  83.2648970  55.7465840   9.0695260  83.9557170  56.2902100   7.8370010
  81.2105090  57.5461840  10.8484980  81.5358500  56.7125590  10.5087210
  81.9985420  58.0690360  10.9963310  76.8656960  52.5029950   3.8743810
  77.1629290  53.4092780   3.7935830  77.4142520  52.0148730   3.2603380
  77.0594490  57.9801770  10.4095730  76.9638090  57.0396500  10.2596130
  77.9026470  58.2016840  10.0143800  72.1905030  54.3915440   8.5629510
  71.7968420  55.2390650   8.7702290  71.5023430  53.7541810   8.7538150
  78.7650080  54.4750410  11.6326250  78.0748400  54.2822610  12.2672340
  79.5082380  54.7585050  12.1650550  69.4922080  52.3143900   2.5959590
  69.2035130  52.8846760   3.3084570  70.2367840  51.8348350   2.9590820
  81.0413050  58.3148850   4.4680170  80.3094170  58.8235660   4.8170270
  80.6437390  57.4978830   4.1668950  77.4790440  54.9903050   2.8732660
  77.4826500  54.5493000   2.0237200  78.3741560  55.3120380   2.9804480
  73.3292820  54.8729540   1.8326870  72.9892870  55.3504770   2.5893920
  72.5670140  54.4194660   1.4727970  81.5038960  53.7682530   3.8803110
  81.5211700  54.2191180   4.7244960  81.2554540  52.8688170   4.0936550
  84.9309710  51.1814710   9.7189490  85.2555480  50.4504370  10.2447470
  84.9666220  50.8628350   8.8170480  71.6301270  62.2028290   9.1389450
  71.2456060  61.5621960   9.7372410  71.9413460  62.9064410   9.7084180
  77.7798410  59.0504830   4.6198070  78.1468540  58.5763400   5.3659410
  77.5903470  59.9246400   4.9606410  75.5697780  58.0913470   6.9382280
  75.2654850  58.9705450   7.1632640  76.5244240  58.1513260   6.9739720
  84.8567550  61.2939820   3.3275520  85.5766670  61.7895110   2.9371630
  84.6549370  60.6157710   2.6829390  80.2386350  61.3648880   9.2144520
  80.1723660  60.4444550   8.9602110  79.6091490  61.4624320   9.9289160
  71.6261510  58.9316210   8.0853640  71.2676450  59.5970060   8.6726980
  71.3316070  58.0999760   8.4566260  74.8274630  59.3900450  10.9693190
  74.5274770  59.5357630  10.0721010  75.5985870  58.8305740  10.8766580
  80.1703080  64.1869450   8.9648320  80.1847620  63.2550410   8.7467230
  79.4628180  64.2729210   9.6038090  86.3814290  60.8276790   8.3116900
  85.6562480  61.4205570   8.1146290  86.9089750  60.8200330   7.5130270
  79.6036980  65.8287020   6.0588820  80.2479200  66.0346400   6.7362240
  79.9666420  65.0675420   5.6059670  80.8769060  63.8319370   4.7766270
  81.5191290  63.1312530   4.8898440  81.4018410  64.6117810   4.5963160
  82.6506680  64.6314270   7.9802330  82.9862920  65.2180960   8.6580250
  81.7307020  64.5006980   8.2100120  70.2010080  52.4209450   8.7625740
  69.4868600  52.6206370   9.3678350  70.6205120  51.6449020   9.1340540
  70.4882670  66.4089710   9.7492270  70.5973790  65.4684450   9.6087660
  69.8363230  66.6744460   9.1006000  78.4795260  64.6805600  11.1490390
  78.1592130  63.9614840  11.6936080  77.8053620  65.3560670  11.2226450
  81.6948860  54.9131760   6.5127190  82.0629680  54.0926970   6.8406760
  80.8347060  54.9733650   6.9282840  78.6550850  57.5671350   6.7365160
  79.1536100  58.0417170   7.4017010  78.7973800  56.6434870   6.9435190
  85.8617710  53.7839310   7.5793550  85.3591310  54.5244710   7.9187360
  86.6774370  54.1723310   7.2630340  86.1565300  66.1981340   2.7009170
  86.2812720  67.0212510   3.1732980  87.0230860  65.9872070   2.3533320
  73.6282830  68.2912550   2.3726300  74.3645310  67.7428010   2.6434870
  74.0123750  69.1568560   2.2332290  72.6341110  67.4758620  11.5611880
  73.4353840  67.7970670  11.9747280  72.1192930  67.1154200  12.2831790
  81.4705740  63.5838490  11.5087290  80.8643900  63.6070090  10.7683040
  81.1659850  62.8521530  12.0454540  82.9006110  67.3118780  10.1196700
  83.8527860  67.2276800  10.0696940  82.7534330  67.9760490  10.7930490
  70.3538920  59.9632080  10.5047930  70.8577940  59.3839360  11.0764160
  69.6146340  60.2472310  11.0424300  77.4076860  61.3703070  10.0383450
  76.6422530  61.9388070   9.9538120  77.5892820  61.0779280   9.1451680
  84.5500210  63.1008400  10.5958470  85.2909680  63.4384160  10.0925930
  83.7872890  63.2700460  10.0428240  72.3862000  58.1061670  11.3998000
  72.4267340  57.8075540  12.3083230  73.2407500  58.5069280  11.2405520
  74.3267810  56.6853770   9.3672490  73.7964270  56.1944720   8.7395830
  74.9955880  57.1137970   8.8330420  83.2245870  61.1523230   9.1313680
  83.6386890  61.3068310   9.9804100  82.2896870  61.2778450   9.2939460
  83.6968040  58.4919390  11.1352830  84.2788810  57.7371710  11.0473310
  83.8729810  59.0226830  10.3584310  74.8140110  53.6516140   9.4469780
  74.7196980  53.0336890   8.7220650  74.2337500  54.3782430   9.2199690
  77.5801550  52.2089380   6.4797170  77.1318850  52.2313640   5.6342720
  76.9466750  51.8108400   7.0767470  77.9861100  61.1043710   7.1009610
  78.4049210  61.9476440   6.9285850  77.0669730  61.2415750   6.8716390
  80.3225000  58.8359890   8.4847450  80.4421210  58.2401030   9.2242290
  81.1819000  58.8729580   8.0648750  82.6612900  59.3897080   7.0609960
  82.1348120  59.9139700   6.4575100  83.0044240  60.0224470   7.6919690
  75.8368520  67.4096720   8.2167340  75.2989610  68.1342780   7.8976040
  76.0902480  66.9327060   7.4264680  77.0893770  55.3781240   9.7423270
  77.6793460  55.0697090  10.4301090  76.2714010  54.9060990   9.8983170
  81.9087200  54.9947050   9.9756290  81.2202720  54.3328590   9.9106280
  82.6293220  54.5485320  10.4204750  78.6930730  68.6447930   8.4753990
  78.6189430  69.5483070   8.7826360  77.7909570  68.3259830   8.4476060
  70.0958020  65.9722520   1.7787610  70.4261030  65.1043580   1.5466250
  70.5249020  66.1781040   2.6092570  70.5848230  66.8393110   4.5169240
  70.1479220  67.0193910   5.3493390  71.1525910  67.5967730   4.3750960
  86.2210410  66.3410110   8.8046550  85.6212400  66.4002670   8.0610470
  86.3504310  65.4015090   8.9343400  84.9062050  63.0662090   6.9022710
  84.0921890  63.4959250   7.1648500  85.3136250  63.6780500   6.2891760
  71.4548590  59.7365910   5.4161460  71.8221630  59.6493310   6.2957480
  70.8859410  58.9732460   5.3168320  86.2552450  58.2050290   8.4291930
  86.0238540  57.9763040   7.5289880  86.5157000  59.1249840   8.3836820
  71.0064590  56.6475000   9.3219880  70.1120640  56.6141760   9.6613590
  71.5462140  56.8461790  10.0871130  84.6940520  53.4306720  11.2071630
  85.5710700  53.4390120  11.5905630  84.7061360  52.6937560  10.5963980
  86.1403790  57.2836260   2.0959650  86.6641270  56.7898910   1.4649820
  86.7263210  57.4186620   2.8407220  86.3193510  57.3676130   5.6179200
  85.3696220  57.3339670   5.7324190  86.5006520  58.2776240   5.3828970
  71.5104300  50.9223330   3.6703100  72.1580490  50.3720710   3.2298260
  71.9306140  51.1766480   4.4918910  85.4056640  51.1164690   7.0272740
  86.0428860  51.7298830   7.3931930  85.5531530  51.1525350   6.0821970
  71.2636300  51.0779000   6.4128420  70.9151120  51.5342820   7.1786600
  70.9324000  50.1836130   6.4950850  72.8700670  64.2498600  10.5781610
  72.8270300  63.8791510  11.4596070  73.0011680  65.1876170  10.7183430
  76.5706700  65.8058190   6.1791330  76.3298060  66.0732750   5.2921850
  77.5109340  65.9763920   6.2342190  78.7761120  52.2690880   9.9347840
  78.7150010  52.8612710  10.6843250  79.7161500  52.1616840   9.7898100
  81.4135680  51.9260940   9.5740130  82.0276090  52.2440230   8.9121210
  81.9585240  51.4409530  10.1935990  87.8310860  67.8252570   6.9801970
  87.3369140  68.2221440   6.2629100  87.2224150  67.2001780   7.3739250
  71.9356940  50.6055200   9.6879190  72.4839930  50.4243250   8.9245300
  72.0012250  49.8149310  10.2235500  72.7088700  67.1960850   7.6979390
  72.1149020  67.0645550   8.4369430  72.7012540  66.3598990   7.2321490
  82.1543720  50.4893080   5.9009420  81.2803560  50.8228190   5.6982350
  82.0454470  50.0166260   6.7261290  83.0615700  52.6963950   7.2851140
  82.7329060  51.8815710   6.9052870  84.0098000  52.6533760   7.1616830
  85.5150310  68.4675990   4.2588710  85.0553280  69.2191800   3.8846730
  84.8862770  67.7482460   4.2003510  72.3400930  64.5619230   6.6487430
  71.6134990  63.9424520   6.5813380  72.4010080  64.9559840   5.7785510
  75.9446030  66.7764230   3.4336840  76.4611050  66.1651590   2.9085100
  76.5943410  67.2793010   3.9247850  78.6841530  67.6672720   4.2605820
  78.9719340  67.4127020   3.3838830  79.1964750  67.1150080   4.8511390
  79.9018540  51.4062920   4.8402330  79.1190330  51.8808420   5.1199090
  79.6081470  50.5017750   4.7315510  84.4539610  52.1086020   2.8851420
  84.8947700  52.0531120   2.0373020  84.1847200  53.0244030   2.9561600
  78.7513890  68.5888820  11.6274020  79.6781200  68.3533090  11.6709980
  78.7364320  69.4160820  11.1460050  75.9377500  51.2533570  11.3915900
  75.6561770  51.7567170  10.6276720  76.3197200  50.4555320  11.0258030
  82.5392960  50.6687150  11.9696370  82.4258410  50.9881760  12.8647890
  83.3562700  51.0699660  11.6733650  85.3191450  67.8158680  11.4515060
  86.1116770  67.3207910  11.2441020  85.6124600  68.4948820  12.0590670
  81.4451110  39.9136130  57.4305070  81.3645160  38.9990740  57.1596780
  81.0315530  40.4103200  56.7244780  79.5769150  41.6915150  59.3114340
  78.8011250  41.2115590  59.6012910  80.2282080  41.0120800  59.1370500
  83.5976580  46.0975340  58.0913470  83.1358110  45.3262580  58.4200640
  84.4102130  46.1241410  58.5965920  72.0026930  36.9636850  53.9732490
  71.1143630  37.3052820  53.8712370  72.2868120  36.7637170  53.0813320
  69.9659940  39.5642500  59.8572190  70.5376050  38.7964700  59.8575830
  69.9661480  39.8631260  58.9478800  79.8239890  48.3833350  57.7117460
  79.2051330  48.8390850  57.1411900  80.6791670  48.5384810  57.3107160
  79.0178140  44.3672340  59.3184500  78.9486420  43.4262280  59.1573630
  79.7798000  44.4573750  59.8907070  80.0483310  37.1742720  59.5453430
  80.4248130  36.3014600  59.4327100  79.9502820  37.5101420  58.6543870
  74.1788320  35.5468350  55.0070870  74.2855070  36.4472080  55.3139630
  73.2680680  35.4986320  54.7165520  83.8307430  34.6693160  56.4781770
  84.6517050  34.1789730  56.5207250  83.8641510  35.2590820  57.2313610
  76.0196050  38.5154720  59.3396050  76.5274270  39.0135690  59.9801070
  76.5509290  37.7389920  59.1635410  80.6903240  43.2672590  55.1049370
  80.0720510  43.7322040  54.5412090  81.2026490  43.9600070  55.5218880
  84.0668910  36.6093540  59.2509310  83.3624480  36.8978430  59.8312420
  84.4281070  37.4193650  58.8908870  70.0586440  43.9529120  52.4789000
  69.6814420  44.4416220  51.7473900  70.3159510  44.6254400  53.1095530
  87.1355830  36.0548330  59.6418520  86.1880740  36.0887310  59.7733950
  87.4605820  36.8687280  60.0267880  77.6675370  32.3545510  57.9374510
  77.9750350  31.7992400  57.2210010  76.7376070  32.4889970  57.7547500
  83.2190430  48.0712800  60.2281970  83.2317590  47.6675090  59.3604230
  82.6665650  48.8460090  60.1243400  84.5135850  44.7929020  55.3172140
  84.4032180  43.8503350  55.4421560  84.5104100  45.1544660  56.2034900
  80.0556130  40.4194340  54.6734630  79.1285410  40.3531720  54.9023100
  80.2080950  41.3574470  54.5589870  80.0425210  36.6911340  51.6701790
  79.1028880  36.8525300  51.7554250  80.3608470  37.4097020  51.1237780
  84.0853420  41.9814640  55.1769880  83.4665840  41.6434190  54.5296180
  84.0677870  41.3374400  55.8849070  75.6612770  40.9459080  57.4554360
  75.2569770  40.2336330  56.9600260  75.7475890  40.6012320  58.3442400
  76.1294470  44.6326640  59.6193570  75.8322760  44.0272110  58.9401350
  77.0794290  44.6703950  59.5082930  82.2618120  41.2201450  52.1842630
  82.7011400  40.3823880  52.0380450  82.9746540  41.8530850  52.2706770
  80.3713500  46.1597520  56.1523870  80.8109410  46.9021850  55.7379260
  80.3100390  46.4024090  57.0762830  85.8435260  32.4744260  50.4983670
  85.5307920  32.5671090  51.3982740  86.6047730  33.0525290  50.4481100
  72.3617400  39.8404060  54.9561010  72.2415000  40.5666150  54.3442280
  72.0518290  39.0706970  54.4788920  71.2450400  44.7119390  57.1735830
  70.8378480  44.8533980  56.3189430  72.1363410  44.4279550  56.9707040
  83.0383680  49.1466640  53.5086880  82.8784820  48.8569580  54.4068710
  82.8730390  48.3706770  52.9732110  75.5172060  48.9265170  55.2858500
  75.3414540  48.0100710  55.0726300  74.6627800  49.2852460  55.5256300
  82.7409810  46.6554200  52.0684880  82.0474970  46.6531490  51.4087160
  83.4832670  46.2313520  51.6379050  82.3059740  48.2816910  56.1433370
  82.7616690  47.5006290  56.4571990  82.6452260  48.9923730  56.6874550
  74.8281060  33.1839130  58.3384680  74.3849210  33.9648670  58.0069200
  75.3866050  33.5069020  59.0455620  77.9439880  32.8049830  53.2190510
  77.3194060  32.8009700  53.9443820  77.8570000  31.9380790  52.8226480
  76.8656960  33.7286460  60.1974280  77.1629290  34.6349290  60.1166300
  77.4142520  33.2405240  59.5833850  74.6195280  38.3072700  56.0665930
  74.3936200  38.0909870  56.9712550  73.8387810  38.7401160  55.7211900
  81.8493040  38.3136070  54.6656580  81.2501930  39.0371870  54.4820200
  82.3972650  38.2512850  53.8833030  80.4557910  36.9499610  56.6959860
  80.8487480  37.2671810  55.8828550  80.8174760  36.0711490  56.8104380
  69.4922080  33.5400410  58.9190060  69.2035130  34.1103270  59.6315040
  70.2367840  33.0604860  59.2821290  69.6792310  37.4820530  50.1292780
  69.5966980  38.4251290  50.2707770  69.3275370  37.3395440  49.2505130
  77.4790440  36.2159560  59.1963130  77.4826500  35.7749510  58.3467670
  78.3741560  36.5376890  59.3034950  73.3292820  36.0986050  58.1557340
  72.9892870  36.5761280  58.9124390  72.5670140  35.6451170  57.7958440
  77.5410590  37.2171640  52.1869890  77.6623410  37.1758120  53.1355710
  77.1559100  38.0795790  52.0316620  76.5532090  39.5272780  51.5853190
  75.9848990  39.0791030  50.9589100  77.2621090  39.8865560  51.0518340
  70.6438900  35.0205030  57.0722010  70.3585820  34.6560700  57.9100630
  70.5817760  34.2885490  56.4585150  74.0979570  43.5230970  53.8579600
  73.3241830  42.9828590  53.6978320  74.8274200  43.0037580  53.5197360
  84.8567550  42.5196330  59.6505990  85.5766670  43.0151620  59.2602100
  84.6549370  41.8414220  59.0059860  80.3177490  33.9134290  53.7935380
  79.5042100  33.4147460  53.7180690  80.1239440  34.7532540  53.3771730
  83.0325880  38.2853940  52.0897540  83.9205500  38.5971170  51.9148880
  83.0030970  37.4126190  51.6978120  74.1416970  43.1911350  57.4958410
  74.6595640  42.3879610  57.4415300  73.6900990  43.1290490  58.3375240
  79.0286470  44.4577630  52.7685710  79.3702170  45.2019860  52.2729030
  78.1999180  44.7708750  53.1310540  85.3040150  39.5965780  51.5577400
  85.2203870  40.0280000  50.7073840  86.0234340  40.0564130  51.9904220
  86.3327400  46.4508040  54.2859530  85.6903560  45.7963660  54.5603250
  85.9458060  46.8563130  53.5100200  81.9113880  43.7793470  58.1331220
  82.2637700  43.1821600  57.4732590  81.0276210  43.4537700  58.3039470
  77.9977160  44.5391160  55.5401630  78.6848290  45.0860370  55.9209220
  77.2109580  45.0831890  55.5751240  70.1369560  40.1563980  51.0318710
  71.0064410  40.4388780  51.3154630  69.6459880  40.9699850  50.9167520
  77.3004370  41.5437190  55.1526990  77.7567150  42.3542440  55.3787180
  76.9492580  41.2260330  55.9845480  73.2016150  31.8874840  55.6249510
  73.0730780  31.8792740  56.5734430  72.3778170  32.2257930  55.2740520
  84.7224780  45.3424500  50.8235880  84.4962360  44.6254940  51.4160520
  84.3320980  45.0936940  49.9857630  70.5040810  49.3691360  51.5980340
  70.8638450  49.9680700  50.9437610  70.3633150  49.9151250  52.3715370
  84.3041030  43.2596440  52.4850040  84.0162730  43.7209130  53.2727920
  85.0993200  42.7994210  52.7534260  76.5209430  46.7522560  52.4154010
  76.5119530  47.4852250  51.7998520  75.6007790  46.5054140  52.5080970
  72.1216070  41.9737450  53.1600770  71.5144020  42.7136350  53.1696070
  72.5965420  42.0636810  52.3338970  85.0610890  35.0945210  53.6445220
  84.4324050  35.1990880  52.9303450  84.5662810  35.3141990  54.4339100
  79.5069030  46.8150800  51.0779200  79.6081010  46.6114790  50.1481180
  78.6070770  46.5609080  51.2826980  77.0294920  37.3731160  55.0603100
  76.3211070  37.8417500  55.5016710  77.3139400  36.7153170  55.6948290
  81.0610350  34.0981820  56.4998890  80.9378130  34.1167950  55.5508400
  82.0094910  34.1460760  56.6197290  78.1487140  49.3337120  55.7726870
  78.4028640  49.2958510  54.8506240  77.1999620  49.2070450  55.7655120
  75.2329940  35.6816240  52.4353810  76.0820470  36.1186390  52.3694000
  74.8661210  35.9936500  53.2625870  84.1539720  40.2529000  57.3485380
  83.2129860  40.2679230  57.5233070  84.4683790  39.4664960  57.7945680
  74.1321360  41.9348600  50.9089340  74.8984630  41.8229960  51.4714770
  74.2096050  41.2386570  50.2566110  72.8268120  39.3673670  51.5922230
  72.9071710  38.4201180  51.7039630  73.7187870  39.6980550  51.6982890
  86.1565300  47.4237850  59.0239640  86.2812720  48.2469020  59.4963450
  87.0230860  47.2128580  58.6763790  73.6282830  49.5169060  58.6956770
  74.3645310  48.9684520  58.9665340  74.0123750  50.3825070  58.5562760
  70.5128310  45.5842630  54.5698280  69.5868090  45.8263770  54.5603690
  70.9784740  46.4116890  54.4483030  76.7385140  48.6899370  50.5182340
  77.5313750  48.9788200  50.0664130  76.2189490  48.2591540  49.8394820
  85.7915310  47.9169500  51.9419080  85.5056820  47.5034640  51.1273260
  85.5934860  48.8457210  51.8219600  77.2562540  43.9102780  50.3824690
  77.1513180  43.2955130  51.1086070  77.0886760  43.3868670  49.5987700
  80.4965270  42.9722810  50.9866680  79.9475370  43.4192110  51.6309420
  81.1184530  42.4672060  51.5104350  76.1640390  41.9313730  52.8831980
  76.5856810  41.7653600  53.7263370  76.2891230  41.1213960  52.3887120
  78.6768030  40.9551340  50.1309080  79.1973690  40.2400360  49.7650230
  79.3236430  41.5937210  50.4309590  75.0599290  38.0046960  49.8290140
  74.8588350  37.1414320  50.1903480  74.8891340  37.9180320  48.8911740
  82.5387600  32.8155190  52.3577020  82.8189890  31.9723090  52.7136440
  81.7653330  33.0478300  52.8715770  73.8582090  35.1047580  49.8168020
  74.1607990  35.1115010  48.9087170  74.5976680  34.7545440  50.3135680
  77.0767020  34.0482200  50.8024220  76.7289020  33.3706190  50.2226670
  77.2779790  33.5871710  51.6167610  79.2416060  49.0362950  52.4210820
  80.1366850  49.3747920  52.4429580  79.2733690  48.3142360  51.7935100
  72.8812220  44.4090000  50.6497820  73.3187090  44.9519670  51.3055400
  73.3659950  43.5836950  50.6594160  70.0958020  47.1979030  58.1018080
  70.4261030  46.3300090  57.8696720  70.5249020  47.4037550  58.9323040
  74.6919940  45.5288040  55.7620050  74.3915480  45.4053010  56.6623960
  74.5857430  44.6696630  55.3535780  87.4611860  45.3084440  50.4646730
  86.6304820  45.3761090  50.9353960  87.6383690  46.1988560  50.1613590
  86.9168320  42.0531920  52.9680930  87.6787230  42.6228570  53.0740620
  86.9322690  41.4859120  53.7389240  70.4172660  40.5769850  57.1988590
  69.7621500  40.3081490  56.5548290  71.2550610  40.4674330  56.7490570
  87.9228290  42.9082020  57.8122860  88.2937120  42.1249340  57.4058830
  88.5630220  43.5971120  57.6340160  86.9687490  42.3466290  50.1253450
  87.2436330  43.2545170  49.9972670  86.7798230  42.2828820  51.0615440
  83.3663100  35.3711140  51.4207080  83.7847980  35.1842120  50.5803740
  83.0599160  34.5190190  51.7310010  86.8652830  40.2835280  55.1182880
  86.4896430  39.5163210  54.6864170  86.1355950  40.6657980  55.6057810
  69.6310740  37.7868780  53.1413920  68.7274820  38.0498980  52.9665580
  70.1151360  38.0579950  52.3613880  86.1403790  38.5092770  58.4190120
  86.6641270  38.0155420  57.7880290  86.7263210  38.6443130  59.1637690
  72.1737950  36.8434320  51.0508300  72.8829650  36.4217540  50.5655580
  71.4577890  36.9109550  50.4191650  71.8212110  32.8973650  50.0910950
  72.5440240  33.4382590  50.4092170  72.0936630  32.6237070  49.2152490
  85.6303760  37.7666120  54.3582530  86.1262880  37.5336990  55.1431410
  85.4319830  36.9277960  53.9420170  87.0590920  36.4027070  56.8920210
  86.9490200  36.2483110  57.8302480  87.8198510  35.8748010  56.6495620
  87.9481190  34.2334990  50.1326350  88.8730500  34.1016170  49.9244640
  87.9256980  34.3127810  51.0862800  88.0219680  35.0045650  52.7583060
  87.2271180  34.9390770  53.2875970  88.2262960  35.9396290  52.7468410
  84.9638100  49.0437200  56.7521450  85.5597170  48.7221770  56.0755870
  85.2216250  48.5709020  57.5434720  75.9446030  48.0020740  59.7567310
  76.4611050  47.3908100  59.2315570  76.5943410  48.5049520  60.2478320
  84.4539610  33.3342530  59.2081890  84.8947700  33.2787630  58.3603490
  84.1847200  34.2500540  59.2792070  86.3178180  32.9657770  57.2190710
  86.2566580  32.0218990  57.0721730  87.0970210  33.0737860  57.7644170
  70.6230930  49.1050130  56.1814660  70.4552970  48.4720810  56.8796550
  69.7565440  49.3109530  55.8308850  71.2458950  32.9366910  53.6846520
  72.0038310  33.0495790  53.1110550  70.7836120  33.7736110  53.6389950
  77.7872760  35.0506180  56.6748830  76.9747270  34.6763070  56.3344710
  78.2914400  34.2951260  56.9770020  82.2897740  31.7148630  57.9131900
  82.8927110  32.2868840  58.3880420  81.5490730  32.2788070  57.6905800
  85.4332340  32.1170190  53.1872180  85.6282970  33.0153640  53.4539610
  84.6462210  31.8857270  53.6805130  72.2293630  47.7983360  53.6264800
  71.7041250  48.1791390  52.9226760  72.1538210  48.4234130  54.3474510
  73.6184100  33.4630960  52.2248490  74.1476860  32.6760760  52.0956440
  74.2512420  34.1422150  52.4584020  75.8121940  33.2006100  55.2793880
  75.1824680  32.4993410  55.4464010  75.2727080  33.9610230  55.0627040
  86.9858950  49.3570900  54.9478740  87.1611140  48.6708640  54.3039660
  86.2880520  49.8817950  54.5555410  74.8286600  49.7465740  52.5014050
  75.5605420  49.4625020  51.9537940  75.0880270  49.5079020  53.3913430
  73.9901390  45.8630470  52.5060380  73.3610270  46.3315570  53.0546210
  74.1049220  45.0179690  52.9406570  72.0026930  36.9636850  35.1989000
  71.1143630  37.3052820  35.0968880  72.2868120  36.7637170  34.3069830
  80.0556130  40.4194340  35.8991140  79.1285410  40.3531720  36.1279610
  80.2080950  41.3574470  35.7846380  80.0425210  36.6911340  32.8958300
  79.1028880  36.8525300  32.9810760  80.3608470  37.4097020  32.3494290
  83.5279980  38.1599180  43.8192200  83.1151160  38.9852890  44.0732190
  82.7955930  37.5744220  43.6268560  75.8464470  47.1843350  48.2800400
  75.8179900  47.5886300  47.4128830  75.6829440  46.2553710  48.1172000
  85.8435260  32.4744260  31.7240180  85.5307920  32.5671090  32.6239250
  86.6047730  33.0525290  31.6737610  72.3617400  39.8404060  36.1817520
  72.2415000  40.5666150  35.5698790  72.0518290  39.0706970  35.7045430
  87.7979290  47.9670450  49.5764570  88.2739010  48.4453340  50.2553650
  88.4186450  47.8987940  48.8510070  87.0536550  37.2115760  47.7014320
  86.4380820  37.7195430  47.1729780  86.7332970  36.3114090  47.6440260
  79.1150870  36.0507650  45.1676510  78.6530240  36.2590670  45.9796450
  78.7128980  35.2367000  44.8647180  84.1155380  37.2716600  46.2973170
  83.2648970  36.9722350  46.6182240  83.9557170  37.5158610  45.3856990
  81.2105090  38.7718350  48.3971960  81.5358500  37.9382100  48.0574190
  81.9985420  39.2946870  48.5450290  74.6195280  38.3072700  37.2922440
  74.3936200  38.0909870  38.1969060  73.8387810  38.7401160  36.9468410
  77.0594490  39.2058280  47.9582710  76.9638090  38.2653010  47.8083110
  77.9026470  39.4273350  47.5630780  78.7650080  35.7006920  49.1813230
  78.0748400  35.5079120  49.8159320  79.5082380  35.9841560  49.7137530
  69.4922080  33.5400410  40.1446570  69.2035130  34.1103270  40.8571550
  70.2367840  33.0604860  40.5077800  69.6792310  37.4820530  31.3549290
  69.5966980  38.4251290  31.4964280  69.3275370  37.3395440  30.4761640
  77.5410590  37.2171640  33.4126400  77.6623410  37.1758120  34.3612220
  77.1559100  38.0795790  33.2573130  76.5532090  39.5272780  32.8109700
  75.9848990  39.0791030  32.1845610  77.2621090  39.8865560  32.2774850
  84.9309710  32.4071220  47.2676470  85.2555480  31.6760880  47.7934450
  84.9666220  32.0884860  46.3657460  70.6438900  35.0205030  38.2978520
  70.3585820  34.6560700  39.1357140  70.5817760  34.2885490  37.6841660
  74.1416970  43.1911350  38.7214920  74.6595640  42.3879610  38.6671810
  73.6900990  43.1290490  39.5631750  74.8274630  40.6156960  48.5180170
  74.5274770  40.7614140  47.6207990  75.5985870  40.0562250  48.4253560
  80.1703080  45.4125960  46.5135300  80.1847620  44.4806920  46.2954210
  79.4628180  45.4985720  47.1525070  77.3004370  41.5437190  36.3783500
  77.7567150  42.3542440  36.6043690  76.9492580  41.2260330  37.2101990
  70.2010080  33.6465960  46.3112720  69.4868600  33.8462880  46.9165330
  70.6205120  32.8705530  46.6827520  70.4882670  47.6346220  47.2979250
  70.5973790  46.6940960  47.1574640  69.8363230  47.9000970  46.6492980
  78.4795260  45.9062110  48.6977370  78.1592130  45.1871350  49.2423060
  77.8053620  46.5817180  48.7713430  81.6948860  36.1388270  44.0614170
  82.0629680  35.3183480  44.3893740  80.8347060  36.1990160  44.4769820
  75.2329940  35.6816240  33.6610320  76.0820470  36.1186390  33.5950510
  74.8661210  35.9936500  34.4882380  85.8617710  35.0095820  45.1280530
  85.3591310  35.7501220  45.4674340  86.6774370  35.3979820  44.8117320
  72.6341110  48.7015130  49.1098860  73.4353840  49.0227180  49.5234260
  72.1192930  48.3410710  49.8318770  81.4705740  44.8095000  49.0574270
  80.8643900  44.8326600  48.3170020  81.1659850  44.0778040  49.5941520
  70.3538920  41.1888590  48.0534910  70.8577940  40.6095870  48.6251140
  69.6146340  41.4728820  48.5911280  77.4076860  42.5959580  47.5870430
  76.6422530  43.1644580  47.5025100  77.5892820  42.3035790  46.6938660
  84.5500210  44.3264910  48.1445450  85.2909680  44.6640670  47.6412910
  83.7872890  44.4956970  47.5915220  72.3862000  39.3318180  48.9484980
  72.4267340  39.0332050  49.8570210  73.2407500  39.7325790  48.7892500
  83.2245870  42.3779740  46.6800660  83.6386890  42.5324820  47.5291080
  82.2896870  42.5034960  46.8426440  83.6968040  39.7175900  48.6839810
  84.2788810  38.9628220  48.5960290  83.8729810  40.2483340  47.9071290
  74.8140110  34.8772650  46.9956760  74.7196980  34.2593400  46.2707630
  74.2337500  35.6038940  46.7686670  77.5801550  33.4345890  44.0284150
  77.1318850  33.4570150  43.1829700  76.9466750  33.0364910  44.6254450
  75.0599290  38.0046960  31.0546650  74.8588350  37.1414320  31.4159990
  74.8891340  37.9180320  30.1168250  77.0893770  36.6037750  47.2910250
  77.6793460  36.2953600  47.9788070  76.2714010  36.1317500  47.4470150
  81.9087200  36.2203560  47.5243270  81.2202720  35.5585100  47.4593260
  82.6293220  35.7741830  47.9691730  82.5387600  32.8155190  33.5833530
  82.8189890  31.9723090  33.9392950  81.7653330  33.0478300  34.0972280
  73.8582090  35.1047580  31.0424530  74.1607990  35.1115010  30.1343680
  74.5976680  34.7545440  31.5392190  77.0767020  34.0482200  32.0280730
  76.7289020  33.3706190  31.4483180  77.2779790  33.5871710  32.8424120
  83.3663100  35.3711140  32.6463590  83.7847980  35.1842120  31.8060250
  83.0599160  34.5190190  32.9566520  86.2552450  39.4306800  45.9778910
  86.0238540  39.2019550  45.0776860  86.5157000  40.3506350  45.9323800
  71.0064590  37.8731510  46.8706860  70.1120640  37.8398270  47.2100570
  71.5462140  38.0718300  47.6358110  84.6940520  34.6563230  48.7558610
  85.5710700  34.6646630  49.1392610  84.7061360  33.9194070  48.1450960
  69.6310740  37.7868780  34.3670430  68.7274820  38.0498980  34.1922090
  70.1151360  38.0579950  33.5870390  72.1737950  36.8434320  32.2764810
  72.8829650  36.4217540  31.7912090  71.4577890  36.9109550  31.6448160
  71.8212110  32.8973650  31.3167460  72.5440240  33.4382590  31.6348680
  72.0936630  32.6237070  30.4409000  85.4056640  32.3421200  44.5759720
  86.0428860  32.9555340  44.9418910  85.5531530  32.3781860  43.6308950
  87.9481190  34.2334990  31.3582860  88.8730500  34.1016170  31.1501150
  87.9256980  34.3127810  32.3119310  88.0219680  35.0045650  33.9839570
  87.2271180  34.9390770  34.5132480  88.2262960  35.9396290  33.9724920
  71.2636300  32.3035510  43.9615400  70.9151120  32.7599330  44.7273580
  70.9324000  31.4092640  44.0437830  72.8700670  45.4755110  48.1268590
  72.8270300  45.1048020  49.0083050  73.0011680  46.4132680  48.2670410
  78.7761120  33.4947390  47.4834820  78.7150010  34.0869220  48.2330230
  79.7161500  33.3873350  47.3385080  81.4135680  33.1517450  47.1227110
  82.0276090  33.4696740  46.4608190  81.9585240  32.6666040  47.7422970
  71.9356940  31.8311710  47.2366170  72.4839930  31.6499760  46.4732280
  72.0012250  31.0405820  47.7722480  82.1543720  31.7149590  43.4496400
  81.2803560  32.0484700  43.2469330  82.0454470  31.2422770  44.2748270
  83.0615700  33.9220460  44.8338120  82.7329060  33.1072220  44.4539850
  84.0098000  33.8790270  44.7103810  71.2458950  32.9366910  34.9103030
  72.0038310  33.0495790  34.3367060  70.7836120  33.7736110  34.8646460
  85.4332340  32.1170190  34.4128690  85.6282970  33.0153640  34.6796120
  84.6462210  31.8857270  34.9061640  73.6184100  33.4630960  33.4505000
  74.1476860  32.6760760  33.3212950  74.2512420  34.1422150  33.6840530
  78.7513890  49.8145330  49.1761000  79.6781200  49.5789600  49.2196960
  78.7364320  50.6417330  48.6947030  75.9377500  32.4790080  48.9402880
  75.6561770  32.9823680  48.1763700  76.3197200  31.6811830  48.5745010
  82.5392960  31.8943660  49.5183350  82.4258410  32.2138270  50.4134870
  83.3562700  32.2956170  49.2220630  85.3191450  49.0415190  49.0002040
  86.1116770  48.5464420  48.7928000  85.6124600  49.7205330  49.6077650
  81.4451110  39.9136130  19.8818090  81.3645160  38.9990740  19.6109800
  81.0315530  40.4103200  19.1757800  72.0026930  36.9636850  16.4245510
  71.1143630  37.3052820  16.3225390  72.2868120  36.7637170  15.5326340
  69.9659940  39.5642500  22.3085210  70.5376050  38.7964700  22.3088850
  69.9661480  39.8631260  21.3991820  71.2084810  34.9726860  24.0954140
  71.0287650  34.0752610  24.3756900  70.8064890  35.5198730  24.7701090
  80.0483310  37.1742720  21.9966450  80.4248130  36.3014600  21.8840120
  79.9502820  37.5101420  21.1056890  74.1788320  35.5468350  17.4583890
  74.2855070  36.4472080  17.7652650  73.2680680  35.4986320  17.1678540
  83.8307430  34.6693160  18.9294790  84.6517050  34.1789730  18.9720270
  83.8641510  35.2590820  19.6826630  71.8271480  37.4687360  22.7036480
  72.5081590  37.7325730  23.3223880  71.5119530  36.6288230  23.0374490
  76.0196050  38.5154720  21.7909070  76.5274270  39.0135690  22.4314090
  76.5509290  37.7389920  21.6148430  74.3032150  33.1553280  26.0572490
  74.3050590  33.6725670  25.2518390  73.4736460  32.6783460  26.0342420
  84.0668910  36.6093540  21.7022330  83.3624480  36.8978430  22.2825440
  84.4281070  37.4193650  21.3421890  73.9847480  34.8663240  24.0642940
  74.3264290  35.7105290  23.7696810  73.0463290  35.0146980  24.1808280
  70.0586440  43.9529120  14.9302020  69.6814420  44.4416220  14.1986920
  70.3159510  44.6254400  15.5608550  77.6675370  32.3545510  20.3887530
  77.9750350  31.7992400  19.6723030  76.7376070  32.4889970  20.2060520
  80.0556130  40.4194340  17.1247650  79.1285410  40.3531720  17.3536120
  80.2080950  41.3574470  17.0102890  80.0425210  36.6911340  14.1214810
  79.1028880  36.8525300  14.2067270  80.3608470  37.4097020  13.5750800
  84.0853420  41.9814640  17.6282900  83.4665840  41.6434190  16.9809200
  84.0677870  41.3374400  18.3362090  83.5279980  38.1599180  25.0448710
  83.1151160  38.9852890  25.2988700  82.7955930  37.5744220  24.8525070
  74.3741390  37.7202290  23.6866420  74.9255980  37.8297630  22.9119670
  74.8884900  38.0939890  24.4021650  82.2618120  41.2201450  14.6355650
  82.7011400  40.3823880  14.4893470  82.9746540  41.8530850  14.7219790
  85.8435260  32.4744260  12.9496690  85.5307920  32.5671090  13.8495760
  86.6047730  33.0525290  12.8994120  72.3617400  39.8404060  17.4074030
  72.2415000  40.5666150  16.7955300  72.0518290  39.0706970  16.9301940
  87.7979290  47.9670450  30.8021080  88.2739010  48.4453340  31.4810160
  88.4186450  47.8987940  30.0766580  70.0002770  43.0119200  23.2142670
  70.0783190  43.1467970  22.2698390  70.6144450  42.3035090  23.4070790
  71.2450400  44.7119390  19.6248850  70.8378480  44.8533980  18.7702450
  72.1363410  44.4279550  19.4220060  82.7409810  46.6554200  14.5197900
  82.0474970  46.6531490  13.8600180  83.4832670  46.2313520  14.0892070
  74.8281060  33.1839130  20.7897700  74.3849210  33.9648670  20.4582220
  75.3866050  33.5069020  21.4968640  79.1150870  36.0507650  26.3933020
  78.6530240  36.2590670  27.2052960  78.7128980  35.2367000  26.0903690
  77.9439880  32.8049830  15.6703530  77.3194060  32.8009700  16.3956840
  77.8570000  31.9380790  15.2739500  76.8656960  33.7286460  22.6487300
  77.1629290  34.6349290  22.5679320  77.4142520  33.2405240  22.0346870
  74.6195280  38.3072700  18.5178950  74.3936200  38.0909870  19.4225570
  73.8387810  38.7401160  18.1724920  81.8493040  38.3136070  17.1169600
  81.2501930  39.0371870  16.9333220  82.3972650  38.2512850  16.3346050
  80.4557910  36.9499610  19.1472880  80.8487480  37.2671810  18.3341570
  80.8174760  36.0711490  19.2617400  72.1905030  35.6171950  27.3373000
  71.7968420  36.4647160  27.5445780  71.5023430  34.9798320  27.5281640
  78.7650080  35.7006920  30.4069740  78.0748400  35.5079120  31.0415830
  79.5082380  35.9841560  30.9394040  69.4922080  33.5400410  21.3703080
  69.2035130  34.1103270  22.0828060  70.2367840  33.0604860  21.7334310
  69.6792310  37.4820530  12.5805800  69.5966980  38.4251290  12.7220790
  69.3275370  37.3395440  11.7018150  77.4790440  36.2159560  21.6476150
  77.4826500  35.7749510  20.7980690  78.3741560  36.5376890  21.7547970
  73.3292820  36.0986050  20.6070360  72.9892870  36.5761280  21.3637410
  72.5670140  35.6451170  20.2471460  77.5410590  37.2171640  14.6382910
  77.6623410  37.1758120  15.5868730  77.1559100  38.0795790  14.4829640
  81.5038960  34.9939040  22.6546600  81.5211700  35.4447690  23.4988450
  81.2554540  34.0944680  22.8680040  76.5532090  39.5272780  14.0366210
  75.9848990  39.0791030  13.4102120  77.2621090  39.8865560  13.5031360
  84.9309710  32.4071220  28.4932980  85.2555480  31.6760880  29.0190960
  84.9666220  32.0884860  27.5913970  70.6438900  35.0205030  19.5235030
  70.3585820  34.6560700  20.3613650  70.5817760  34.2885490  18.9098170
  74.0979570  43.5230970  16.3092620  73.3241830  42.9828590  16.1491340
  74.8274200  43.0037580  15.9710380  80.3177490  33.9134290  16.2448400
  79.5042100  33.4147460  16.1693710  80.1239440  34.7532540  15.8284750
  83.0325880  38.2853940  14.5410560  83.9205500  38.5971170  14.3661900
  83.0030970  37.4126190  14.1491140  79.0286470  44.4577630  15.2198730
  79.3702170  45.2019860  14.7242050  78.1999180  44.7708750  15.5823560
  85.3040150  39.5965780  14.0090420  85.2203870  40.0280000  13.1586860
  86.0234340  40.0564130  14.4417240  86.3327400  46.4508040  16.7372550
  85.6903560  45.7963660  17.0116270  85.9458060  46.8563130  15.9613220
  70.1369560  40.1563980  13.4831730  71.0064410  40.4388780  13.7667650
  69.6459880  40.9699850  13.3680540  77.3004370  41.5437190  17.6040010
  77.7567150  42.3542440  17.8300200  76.9492580  41.2260330  18.4358500
  73.2016150  31.8874840  18.0762530  73.0730780  31.8792740  19.0247450
  72.3778170  32.2257930  17.7253540  84.7224780  45.3424500  13.2748900
  84.4962360  44.6254940  13.8673540  84.3320980  45.0936940  12.4370650
  70.5040810  49.3691360  14.0493360  70.8638450  49.9680700  13.3950630
  70.3633150  49.9151250  14.8228390  70.2010080  33.6465960  27.5369230
  69.4868600  33.8462880  28.1421840  70.6205120  32.8705530  27.9084030
  84.3041030  43.2596440  14.9363060  84.0162730  43.7209130  15.7240940
  85.0993200  42.7994210  15.2047280  70.4882670  47.6346220  28.5235760
  70.5973790  46.6940960  28.3831150  69.8363230  47.9000970  27.8749490
  76.5209430  46.7522560  14.8667030  76.5119530  47.4852250  14.2511540
  75.6007790  46.5054140  14.9593990  72.1216070  41.9737450  15.6113790
  71.5144020  42.7136350  15.6209090  72.5965420  42.0636810  14.7851990
  81.6948860  36.1388270  25.2870680  82.0629680  35.3183480  25.6150250
  80.8347060  36.1990160  25.7026330  85.0610890  35.0945210  16.0958240
  84.4324050  35.1990880  15.3816470  84.5662810  35.3141990  16.8852120
  79.5069030  46.8150800  13.5292220  79.6081010  46.6114790  12.5994200
  78.6070770  46.5609080  13.7340000  77.0294920  37.3731160  17.5116120
  76.3211070  37.8417500  17.9529730  77.3139400  36.7153170  18.1461310
  78.6550850  38.7927860  25.5108650  79.1536100  39.2673680  26.1760500
  78.7973800  37.8691380  25.7178680  81.0610350  34.0981820  18.9511910
  80.9378130  34.1167950  18.0021420  82.0094910  34.1460760  19.0710310
  75.2329940  35.6816240  14.8866830  76.0820470  36.1186390  14.8207020
  74.8661210  35.9936500  15.7138890  85.8617710  35.0095820  26.3537040
  85.3591310  35.7501220  26.6930850  86.6774370  35.3979820  26.0373830
  84.1539720  40.2529000  19.7998400  83.2129860  40.2679230  19.9746090
  84.4683790  39.4664960  20.2458700  74.1321360  41.9348600  13.3602360
  74.8984630  41.8229960  13.9227790  74.2096050  41.2386570  12.7079130
  72.8268120  39.3673670  14.0435250  72.9071710  38.4201180  14.1552650
  73.7187870  39.6980550  14.1495910  70.5128310  45.5842630  17.0211300
  69.5868090  45.8263770  17.0116710  70.9784740  46.4116890  16.8996050
  76.7385140  48.6899370  12.9695360  77.5313750  48.9788200  12.5177150
  76.2189490  48.2591540  12.2907840  85.7915310  47.9169500  14.3932100
  85.5056820  47.5034640  13.5786280  85.5934860  48.8457210  14.2732620
  77.2562540  43.9102780  12.8337710  77.1513180  43.2955130  13.5599090
  77.0886760  43.3868670  12.0500720  80.4965270  42.9722810  13.4379700
  79.9475370  43.4192110  14.0822440  81.1184530  42.4672060  13.9617370
  76.1640390  41.9313730  15.3345000  76.5856810  41.7653600  16.1776390
  76.2891230  41.1213960  14.8400140  78.6768030  40.9551340  12.5822100
  79.1973690  40.2400360  12.2163250  79.3236430  41.5937210  12.8822610
  74.8140110  34.8772650  28.2213270  74.7196980  34.2593400  27.4964140
  74.2337500  35.6038940  27.9943180  77.5801550  33.4345890  25.2540660
  77.1318850  33.4570150  24.4086210  76.9466750  33.0364910  25.8510960
  75.0599290  38.0046960  12.2803160  74.8588350  37.1414320  12.6416500
  74.8891340  37.9180320  11.3424760  77.0893770  36.6037750  28.5166760
  77.6793460  36.2953600  29.2044580  76.2714010  36.1317500  28.6726660
  81.9087200  36.2203560  28.7499780  81.2202720  35.5585100  28.6849770
  82.6293220  35.7741830  29.1948240  82.5387600  32.8155190  14.8090040
  82.8189890  31.9723090  15.1649460  81.7653330  33.0478300  15.3228790
  73.8582090  35.1047580  12.2681040  74.1607990  35.1115010  11.3600190
  74.5976680  34.7545440  12.7648700  77.0767020  34.0482200  13.2537240
  76.7289020  33.3706190  12.6739690  77.2779790  33.5871710  14.0680630
  79.2416060  49.0362950  14.8723840  80.1366850  49.3747920  14.8942600
  79.2733690  48.3142360  14.2448120  72.8812220  44.4090000  13.1010840
  73.3187090  44.9519670  13.7568420  73.3659950  43.5836950  13.1107180
  87.4611860  45.3084440  12.9159750  86.6304820  45.3761090  13.3866980
  87.6383690  46.1988560  12.6126610  86.9168320  42.0531920  15.4193950
  87.6787230  42.6228570  15.5253640  86.9322690  41.4859120  16.1902260
  70.4172660  40.5769850  19.6501610  69.7621500  40.3081490  19.0061310
  71.2550610  40.4674330  19.2003590  86.9687490  42.3466290  12.5766470
  87.2436330  43.2545170  12.4485690  86.7798230  42.2828820  13.5128460
  83.3663100  35.3711140  13.8720100  83.7847980  35.1842120  13.0316760
  83.0599160  34.5190190  14.1823030  86.8652830  40.2835280  17.5695900
  86.4896430  39.5163210  17.1377190  86.1355950  40.6657980  18.0570830
  71.0064590  37.8731510  28.0963370  70.1120640  37.8398270  28.4357080
  71.5462140  38.0718300  28.8614620  84.6940520  34.6563230  29.9815120
  85.5710700  34.6646630  30.3649120  84.7061360  33.9194070  29.3707470
  69.6310740  37.7868780  15.5926940  68.7274820  38.0498980  15.4178600
  70.1151360  38.0579950  14.8126900  86.1403790  38.5092770  20.8703140
  86.6641270  38.0155420  20.2393310  86.7263210  38.6443130  21.6150710
  72.1737950  36.8434320  13.5021320  72.8829650  36.4217540  13.0168600
  71.4577890  36.9109550  12.8704670  71.8212110  32.8973650  12.5423970
  72.5440240  33.4382590  12.8605190  72.0936630  32.6237070  11.6665510
  85.6303760  37.7666120  16.8095550  86.1262880  37.5336990  17.5944430
  85.4319830  36.9277960  16.3933190  71.5104300  32.1479840  22.4446590
  72.1580490  31.5977220  22.0041750  71.9306140  32.4022990  23.2662400
  87.0590920  36.4027070  19.3433230  86.9490200  36.2483110  20.2815500
  87.8198510  35.8748010  19.1008640  85.4056640  32.3421200  25.8016230
  86.0428860  32.9555340  26.1675420  85.5531530  32.3781860  24.8565460
  87.9481190  34.2334990  12.5839370  88.8730500  34.1016170  12.3757660
  87.9256980  34.3127810  13.5375820  88.0219680  35.0045650  15.2096080
  87.2271180  34.9390770  15.7388990  88.2262960  35.9396290  15.1981430
  71.2636300  32.3035510  25.1871910  70.9151120  32.7599330  25.9530090
  70.9324000  31.4092640  25.2694340  78.7761120  33.4947390  28.7091330
  78.7150010  34.0869220  29.4586740  79.7161500  33.3873350  28.5641590
  81.4135680  33.1517450  28.3483620  82.0276090  33.4696740  27.6864700
  81.9585240  32.6666040  28.9679480  71.9356940  31.8311710  28.4622680
  72.4839930  31.6499760  27.6988790  72.0012250  31.0405820  28.9978990
  72.7088700  48.4217360  26.4722880  72.1149020  48.2902060  27.2112920
  72.7012540  47.5855500  26.0064980  82.1543720  31.7149590  24.6752910
  81.2803560  32.0484700  24.4725840  82.0454470  31.2422770  25.5004780
  83.0615700  33.9220460  26.0594630  82.7329060  33.1072220  25.6796360
  84.0098000  33.8790270  25.9360320  79.9018540  32.6319430  23.6145820
  79.1190330  33.1064930  23.8942580  79.6081470  31.7274260  23.5059000
  84.4539610  33.3342530  21.6594910  84.8947700  33.2787630  20.8116510
  84.1847200  34.2500540  21.7305090  86.3178180  32.9657770  19.6703730
  86.2566580  32.0218990  19.5234750  87.0970210  33.0737860  20.2157190
  71.2458950  32.9366910  16.1359540  72.0038310  33.0495790  15.5623570
  70.7836120  33.7736110  16.0902970  77.7872760  35.0506180  19.1261850
  76.9747270  34.6763070  18.7857730  78.2914400  34.2951260  19.4283040
  82.2897740  31.7148630  20.3644920  82.8927110  32.2868840  20.8393440
  81.5490730  32.2788070  20.1418820  85.4332340  32.1170190  15.6385200
  85.6282970  33.0153640  15.9052630  84.6462210  31.8857270  16.1318150
  72.2293630  47.7983360  16.0777820  71.7041250  48.1791390  15.3739780
  72.1538210  48.4234130  16.7987530  73.6184100  33.4630960  14.6761510
  74.1476860  32.6760760  14.5469460  74.2512420  34.1422150  14.9097040
  75.8121940  33.2006100  17.7306900  75.1824680  32.4993410  17.8977030
  75.2727080  33.9610230  17.5140060  75.9377500  32.4790080  30.1659390
  75.6561770  32.9823680  29.4020210  76.3197200  31.6811830  29.8001520
  74.8286600  49.7465740  14.9527070  75.5605420  49.4625020  14.4050960
  75.0880270  49.5079020  15.8426450  73.9901390  45.8630470  14.9573400
  73.3610270  46.3315570  15.5059230  74.1049220  45.0179690  15.3919590
  82.5392960  31.8943660  30.7439860  82.4258410  32.2138270  31.6391380
  83.3562700  32.2956170  30.4477140  79.5769150  41.6915150   2.9883870
  78.8011250  41.2115590   3.2782440  80.2282080  41.0120800   2.8140030
  73.5934980  42.0034960   3.8659630  72.7619860  41.7483670   4.2656140
  74.2015960  42.0745730   4.6017550  83.5976580  46.0975340   1.7683000
  83.1358110  45.3262580   2.0970170  84.4102130  46.1241410   2.2735450
  73.5736240  46.0375050   4.0617650  73.8764280  45.1472790   3.8827870
  74.3179830  46.5945270   3.8339900  69.9659940  39.5642500   3.5341720
  70.5376050  38.7964700   3.5345360  69.9661480  39.8631260   2.6248330
  79.0178140  44.3672340   2.9954030  78.9486420  43.4262280   2.8343160
  79.7798000  44.4573750   3.5676600  71.2084810  34.9726860   5.3210650
  71.0287650  34.0752610   5.6013410  70.8064890  35.5198730   5.9957600
  80.0483310  37.1742720   3.2222960  80.4248130  36.3014600   3.1096630
  79.9502820  37.5101420   2.3313400  71.8271480  37.4687360   3.9292990
  72.5081590  37.7325730   4.5480390  71.5119530  36.6288230   4.2631000
  76.0196050  38.5154720   3.0165580  76.5274270  39.0135690   3.6570600
  76.5509290  37.7389920   2.8404940  88.1206980  36.6859910   6.7194930
  87.4159150  37.0741620   6.2010040  88.3864900  37.3810200   7.3215860
  74.3032150  33.1553280   7.2829000  74.3050590  33.6725670   6.4774900
  73.4736460  32.6783460   7.2598930  75.5535000  42.7948460   5.4602500
  75.2204380  43.4217380   6.1023570  75.7301680  43.3210340   4.6804170
  84.0668910  36.6093540   2.9278840  83.3624480  36.8978430   3.5081950
  84.4281070  37.4193650   2.5678400  73.9847480  34.8663240   5.2899450
  74.3264290  35.7105290   4.9953320  73.0463290  35.0146980   5.4064790
  74.7654100  44.7629260   7.2751680  75.3828100  45.4380340   6.9936130
  73.9047220  45.1717240   7.1839180  85.6831690  46.2268670   5.1906320
  84.9995210  46.8967780   5.1822990  86.2225980  46.4249320   4.4251180
  87.1355830  36.0548330   3.3188050  86.1880740  36.0887310   3.4503480
  87.4605820  36.8687280   3.7037410  83.2190430  48.0712800   3.9051500
  83.2317590  47.6675090   3.0373760  82.6665650  48.8460090   3.8012930
  82.6175870  42.9742640   5.2334110  83.0344660  42.7602750   4.3987570
  83.3415690  43.2315430   5.8042730  86.5637970  41.3729860   5.3250350
  85.7356600  41.4422950   4.8500480  87.1588450  41.9584170   4.8566180
  76.1294470  44.6326640   3.2963100  75.8322760  44.0272110   2.6170880
  77.0794290  44.6703950   3.1852460  74.3741390  37.7202290   4.9122930
  74.9255980  37.8297630   4.1376180  74.8884900  38.0939890   5.6278160
  84.2180080  48.2058510   6.9586200  83.7410640  49.0130700   6.7658810
  83.5341870  47.5536840   7.1112410  75.2212900  44.3708330   9.9470900
  74.3241430  44.5948300  10.1944300  75.2465770  44.4943270   8.9982300
  74.0484120  41.2421650   8.5228270  73.9091890  42.1144450   8.8915670
  73.1665480  40.8994460   8.3776210  75.8464470  47.1843350  10.7313420
  75.8179900  47.5886300   9.8641850  75.6829440  46.2553710  10.5685020
  87.7979290  47.9670450  12.0277590  88.2739010  48.4453340  12.7066670
  88.4186450  47.8987940  11.3023090  70.0002770  43.0119200   4.4399180
  70.0783190  43.1467970   3.4954900  70.6144450  42.3035090   4.6327300
  87.2012540  45.1583300   9.1877600  87.3275600  44.9195180   8.2694780
  87.2433920  44.3267840   9.6599680  81.0629280  48.8611300   7.7572410
  81.5773950  48.7719310   8.5594840  80.2198360  49.2071000   8.0500320
  87.0536550  37.2115760  10.1527340  86.4380820  37.7195430   9.6242800
  86.7332970  36.3114090  10.0953280  70.0562290  44.0533370   6.9793640
  70.2193330  43.5838730   6.1613010  70.5214740  43.5456930   7.6442480
  74.8281060  33.1839130   2.0154210  74.3849210  33.9648670   1.6838730
  75.3866050  33.5069020   2.7225150  79.1150870  36.0507650   7.6189530
  78.6530240  36.2590670   8.4309470  78.7128980  35.2367000   7.3160200
  84.1155380  37.2716600   8.7486190  83.2648970  36.9722350   9.0695260
  83.9557170  37.5158610   7.8370010  81.2105090  38.7718350  10.8484980
  81.5358500  37.9382100  10.5087210  81.9985420  39.2946870  10.9963310
  76.8656960  33.7286460   3.8743810  77.1629290  34.6349290   3.7935830
  77.4142520  33.2405240   3.2603380  77.0594490  39.2058280  10.4095730
  76.9638090  38.2653010  10.2596130  77.9026470  39.4273350  10.0143800
  72.1905030  35.6171950   8.5629510  71.7968420  36.4647160   8.7702290
  71.5023430  34.9798320   8.7538150  78.7650080  35.7006920  11.6326250
  78.0748400  35.5079120  12.2672340  79.5082380  35.9841560  12.1650550
  69.4922080  33.5400410   2.5959590  69.2035130  34.1103270   3.3084570
  70.2367840  33.0604860   2.9590820  81.0413050  39.5405360   4.4680170
  80.3094170  40.0492170   4.8170270  80.6437390  38.7235340   4.1668950
  77.4790440  36.2159560   2.8732660  77.4826500  35.7749510   2.0237200
  78.3741560  36.5376890   2.9804480  73.3292820  36.0986050   1.8326870
  72.9892870  36.5761280   2.5893920  72.5670140  35.6451170   1.4727970
  81.5038960  34.9939040   3.8803110  81.5211700  35.4447690   4.7244960
  81.2554540  34.0944680   4.0936550  84.9309710  32.4071220   9.7189490
  85.2555480  31.6760880  10.2447470  84.9666220  32.0884860   8.8170480
  71.6301270  43.4284800   9.1389450  71.2456060  42.7878470   9.7372410
  71.9413460  44.1320920   9.7084180  77.7798410  40.2761340   4.6198070
  78.1468540  39.8019910   5.3659410  77.5903470  41.1502910   4.9606410
  75.5697780  39.3169980   6.9382280  75.2654850  40.1961960   7.1632640
  76.5244240  39.3769770   6.9739720  84.8567550  42.5196330   3.3275520
  85.5766670  43.0151620   2.9371630  84.6549370  41.8414220   2.6829390
  80.2386350  42.5905390   9.2144520  80.1723660  41.6701060   8.9602110
  79.6091490  42.6880830   9.9289160  71.6261510  40.1572720   8.0853640
  71.2676450  40.8226570   8.6726980  71.3316070  39.3256270   8.4566260
  74.8274630  40.6156960  10.9693190  74.5274770  40.7614140  10.0721010
  75.5985870  40.0562250  10.8766580  80.1703080  45.4125960   8.9648320
  80.1847620  44.4806920   8.7467230  79.4628180  45.4985720   9.6038090
  86.3814290  42.0533300   8.3116900  85.6562480  42.6462080   8.1146290
  86.9089750  42.0456840   7.5130270  79.6036980  47.0543530   6.0588820
  80.2479200  47.2602910   6.7362240  79.9666420  46.2931930   5.6059670
  80.8769060  45.0575880   4.7766270  81.5191290  44.3569040   4.8898440
  81.4018410  45.8374320   4.5963160  82.6506680  45.8570780   7.9802330
  82.9862920  46.4437470   8.6580250  81.7307020  45.7263490   8.2100120
  70.2010080  33.6465960   8.7625740  69.4868600  33.8462880   9.3678350
  70.6205120  32.8705530   9.1340540  70.4882670  47.6346220   9.7492270
  70.5973790  46.6940960   9.6087660  69.8363230  47.9000970   9.1006000
  78.4795260  45.9062110  11.1490390  78.1592130  45.1871350  11.6936080
  77.8053620  46.5817180  11.2226450  81.6948860  36.1388270   6.5127190
  82.0629680  35.3183480   6.8406760  80.8347060  36.1990160   6.9282840
  78.6550850  38.7927860   6.7365160  79.1536100  39.2673680   7.4017010
  78.7973800  37.8691380   6.9435190  85.8617710  35.0095820   7.5793550
  85.3591310  35.7501220   7.9187360  86.6774370  35.3979820   7.2630340
  86.1565300  47.4237850   2.7009170  86.2812720  48.2469020   3.1732980
  87.0230860  47.2128580   2.3533320  73.6282830  49.5169060   2.3726300
  74.3645310  48.9684520   2.6434870  74.0123750  50.3825070   2.2332290
  72.6341110  48.7015130  11.5611880  73.4353840  49.0227180  11.9747280
  72.1192930  48.3410710  12.2831790  81.4705740  44.8095000  11.5087290
  80.8643900  44.8326600  10.7683040  81.1659850  44.0778040  12.0454540
  82.9006110  48.5375290  10.1196700  83.8527860  48.4533310  10.0696940
  82.7534330  49.2017000  10.7930490  70.3538920  41.1888590  10.5047930
  70.8577940  40.6095870  11.0764160  69.6146340  41.4728820  11.0424300
  77.4076860  42.5959580  10.0383450  76.6422530  43.1644580   9.9538120
  77.5892820  42.3035790   9.1451680  84.5500210  44.3264910  10.5958470
  85.2909680  44.6640670  10.0925930  83.7872890  44.4956970  10.0428240
  72.3862000  39.3318180  11.3998000  72.4267340  39.0332050  12.3083230
  73.2407500  39.7325790  11.2405520  74.3267810  37.9110280   9.3672490
  73.7964270  37.4201230   8.7395830  74.9955880  38.3394480   8.8330420
  83.2245870  42.3779740   9.1313680  83.6386890  42.5324820   9.9804100
  82.2896870  42.5034960   9.2939460  83.6968040  39.7175900  11.1352830
  84.2788810  38.9628220  11.0473310  83.8729810  40.2483340  10.3584310
  74.8140110  34.8772650   9.4469780  74.7196980  34.2593400   8.7220650
  74.2337500  35.6038940   9.2199690  77.5801550  33.4345890   6.4797170
  77.1318850  33.4570150   5.6342720  76.9466750  33.0364910   7.0767470
  77.9861100  42.3300220   7.1009610  78.4049210  43.1732950   6.9285850
  77.0669730  42.4672260   6.8716390  80.3225000  40.0616400   8.4847450
  80.4421210  39.4657540   9.2242290  81.1819000  40.0986090   8.0648750
  82.6612900  40.6153590   7.0609960  82.1348120  41.1396210   6.4575100
  83.0044240  41.2480980   7.6919690  75.8368520  48.6353230   8.2167340
  75.2989610  49.3599290   7.8976040  76.0902480  48.1583570   7.4264680
  77.0893770  36.6037750   9.7423270  77.6793460  36.2953600  10.4301090
  76.2714010  36.1317500   9.8983170  81.9087200  36.2203560   9.9756290
  81.2202720  35.5585100   9.9106280  82.6293220  35.7741830  10.4204750
  78.6930730  49.8704440   8.4753990  78.6189430  50.7739580   8.7826360
  77.7909570  49.5516340   8.4476060  70.0958020  47.1979030   1.7787610
  70.4261030  46.3300090   1.5466250  70.5249020  47.4037550   2.6092570
  70.5848230  48.0649620   4.5169240  70.1479220  48.2450420   5.3493390
  71.1525910  48.8224240   4.3750960  86.2210410  47.5666620   8.8046550
  85.6212400  47.6259180   8.0610470  86.3504310  46.6271600   8.9343400
  84.9062050  44.2918600   6.9022710  84.0921890  44.7215760   7.1648500
  85.3136250  44.9037010   6.2891760  71.4548590  40.9622420   5.4161460
  71.8221630  40.8749820   6.2957480  70.8859410  40.1988970   5.3168320
  86.2552450  39.4306800   8.4291930  86.0238540  39.2019550   7.5289880
  86.5157000  40.3506350   8.3836820  71.0064590  37.8731510   9.3219880
  70.1120640  37.8398270   9.6613590  71.5462140  38.0718300  10.0871130
  84.6940520  34.6563230  11.2071630  85.5710700  34.6646630  11.5905630
  84.7061360  33.9194070  10.5963980  86.1403790  38.5092770   2.0959650
  86.6641270  38.0155420   1.4649820  86.7263210  38.6443130   2.8407220
  86.3193510  38.5932640   5.6179200  85.3696220  38.5596180   5.7324190
  86.5006520  39.5032750   5.3828970  71.5104300  32.1479840   3.6703100
  72.1580490  31.5977220   3.2298260  71.9306140  32.4022990   4.4918910
  85.4056640  32.3421200   7.0272740  86.0428860  32.9555340   7.3931930
  85.5531530  32.3781860   6.0821970  71.2636300  32.3035510   6.4128420
  70.9151120  32.7599330   7.1786600  70.9324000  31.4092640   6.4950850
  72.8700670  45.4755110  10.5781610  72.8270300  45.1048020  11.4596070
  73.0011680  46.4132680  10.7183430  76.5706700  47.0314700   6.1791330
  76.3298060  47.2989260   5.2921850  77.5109340  47.2020430   6.2342190
  78.7761120  33.4947390   9.9347840  78.7150010  34.0869220  10.6843250
  79.7161500  33.3873350   9.7898100  81.4135680  33.1517450   9.5740130
  82.0276090  33.4696740   8.9121210  81.9585240  32.6666040  10.1935990
  87.8310860  49.0509080   6.9801970  87.3369140  49.4477950   6.2629100
  87.2224150  48.4258290   7.3739250  71.9356940  31.8311710   9.6879190
  72.4839930  31.6499760   8.9245300  72.0012250  31.0405820  10.2235500
  72.7088700  48.4217360   7.6979390  72.1149020  48.2902060   8.4369430
  72.7012540  47.5855500   7.2321490  82.1543720  31.7149590   5.9009420
  81.2803560  32.0484700   5.6982350  82.0454470  31.2422770   6.7261290
  83.0615700  33.9220460   7.2851140  82.7329060  33.1072220   6.9052870
  84.0098000  33.8790270   7.1616830  85.5150310  49.6932500   4.2588710
  85.0553280  50.4448310   3.8846730  84.8862770  48.9738970   4.2003510
  72.3400930  45.7875740   6.6487430  71.6134990  45.1681030   6.5813380
  72.4010080  46.1816350   5.7785510  75.9446030  48.0020740   3.4336840
  76.4611050  47.3908100   2.9085100  76.5943410  48.5049520   3.9247850
  78.6841530  48.8929230   4.2605820  78.9719340  48.6383530   3.3838830
  79.1964750  48.3406590   4.8511390  79.9018540  32.6319430   4.8402330
  79.1190330  33.1064930   5.1199090  79.6081470  31.7274260   4.7315510
  84.4539610  33.3342530   2.8851420  84.8947700  33.2787630   2.0373020
  84.1847200  34.2500540   2.9561600  78.7513890  49.8145330  11.6274020
  79.6781200  49.5789600  11.6709980  78.7364320  50.6417330  11.1460050
  75.9377500  32.4790080  11.3915900  75.6561770  32.9823680  10.6276720
  76.3197200  31.6811830  11.0258030  82.5392960  31.8943660  11.9696370
  82.4258410  32.2138270  12.8647890  83.3562700  32.2956170  11.6733650
  85.3191450  49.0415190  11.4515060  86.1116770  48.5464420  11.2441020
  85.6124600  49.7205330  12.0590670  81.4451110  21.1392640  57.4305070
  81.3645160  20.2247250  57.1596780  81.0315530  21.6359710  56.7244780
  79.5769150  22.9171660  59.3114340  78.8011250  22.4372100  59.6012910
  80.2282080  22.2377310  59.1370500  83.5976580  27.3231850  58.0913470
  83.1358110  26.5519090  58.4200640  84.4102130  27.3497920  58.5965920
  72.0026930  18.1893360  53.9732490  71.1143630  18.5309330  53.8712370
  72.2868120  17.9893680  53.0813320  69.9659940  20.7899010  59.8572190
  70.5376050  20.0221210  59.8575830  69.9661480  21.0887770  58.9478800
  79.8239890  29.6089860  57.7117460  79.2051330  30.0647360  57.1411900
  80.6791670  29.7641320  57.3107160  79.0178140  25.5928850  59.3184500
  78.9486420  24.6518790  59.1573630  79.7798000  25.6830260  59.8907070
  80.0483310  18.3999230  59.5453430  80.4248130  17.5271110  59.4327100
  79.9502820  18.7357930  58.6543870  74.1788320  16.7724860  55.0070870
  74.2855070  17.6728590  55.3139630  73.2680680  16.7242830  54.7165520
  83.8307430  15.8949670  56.4781770  84.6517050  15.4046240  56.5207250
  83.8641510  16.4847330  57.2313610  76.0196050  19.7411230  59.3396050
  76.5274270  20.2392200  59.9801070  76.5509290  18.9646430  59.1635410
  80.6903240  24.4929100  55.1049370  80.0720510  24.9578550  54.5412090
  81.2026490  25.1856580  55.5218880  84.0668910  17.8350050  59.2509310
  83.3624480  18.1234940  59.8312420  84.4281070  18.6450160  58.8908870
  70.0586440  25.1785630  52.4789000  69.6814420  25.6672730  51.7473900
  70.3159510  25.8510910  53.1095530  87.1355830  17.2804840  59.6418520
  86.1880740  17.3143820  59.7733950  87.4605820  18.0943790  60.0267880
  77.6675370  13.5802020  57.9374510  77.9750350  13.0248910  57.2210010
  76.7376070  13.7146480  57.7547500  83.2190430  29.2969310  60.2281970
  83.2317590  28.8931600  59.3604230  82.6665650  30.0716600  60.1243400
  84.5135850  26.0185530  55.3172140  84.4032180  25.0759860  55.4421560
  84.5104100  26.3801170  56.2034900  80.0556130  21.6450850  54.6734630
  79.1285410  21.5788230  54.9023100  80.2080950  22.5830980  54.5589870
  80.0425210  17.9167850  51.6701790  79.1028880  18.0781810  51.7554250
  80.3608470  18.6353530  51.1237780  84.0853420  23.2071150  55.1769880
  83.4665840  22.8690700  54.5296180  84.0677870  22.5630910  55.8849070
  75.6612770  22.1715590  57.4554360  75.2569770  21.4592840  56.9600260
  75.7475890  21.8268830  58.3442400  76.1294470  25.8583150  59.6193570
  75.8322760  25.2528620  58.9401350  77.0794290  25.8960460  59.5082930
  82.2618120  22.4457960  52.1842630  82.7011400  21.6080390  52.0380450
  82.9746540  23.0787360  52.2706770  80.3713500  27.3854030  56.1523870
  80.8109410  28.1278360  55.7379260  80.3100390  27.6280600  57.0762830
  85.8435260  13.7000770  50.4983670  85.5307920  13.7927600  51.3982740
  86.6047730  14.2781800  50.4481100  72.3617400  21.0660570  54.9561010
  72.2415000  21.7922660  54.3442280  72.0518290  20.2963480  54.4788920
  71.2450400  25.9375900  57.1735830  70.8378480  26.0790490  56.3189430
  72.1363410  25.6536060  56.9707040  83.0383680  30.3723150  53.5086880
  82.8784820  30.0826090  54.4068710  82.8730390  29.5963280  52.9732110
  75.5172060  30.1521680  55.2858500  75.3414540  29.2357220  55.0726300
  74.6627800  30.5108970  55.5256300  82.7409810  27.8810710  52.0684880
  82.0474970  27.8788000  51.4087160  83.4832670  27.4570030  51.6379050
  82.3059740  29.5073420  56.1433370  82.7616690  28.7262800  56.4571990
  82.6452260  30.2180240  56.6874550  74.8281060  14.4095640  58.3384680
  74.3849210  15.1905180  58.0069200  75.3866050  14.7325530  59.0455620
  77.9439880  14.0306340  53.2190510  77.3194060  14.0266210  53.9443820
  77.8570000  13.1637300  52.8226480  76.8656960  14.9542970  60.1974280
  77.1629290  15.8605800  60.1166300  77.4142520  14.4661750  59.5833850
  74.6195280  19.5329210  56.0665930  74.3936200  19.3166380  56.9712550
  73.8387810  19.9657670  55.7211900  81.8493040  19.5392580  54.6656580
  81.2501930  20.2628380  54.4820200  82.3972650  19.4769360  53.8833030
  80.4557910  18.1756120  56.6959860  80.8487480  18.4928320  55.8828550
  80.8174760  17.2968000  56.8104380  69.4922080  14.7656920  58.9190060
  69.2035130  15.3359780  59.6315040  70.2367840  14.2861370  59.2821290
  69.6792310  18.7077040  50.1292780  69.5966980  19.6507800  50.2707770
  69.3275370  18.5651950  49.2505130  77.4790440  17.4416070  59.1963130
  77.4826500  17.0006020  58.3467670  78.3741560  17.7633400  59.3034950
  73.3292820  17.3242560  58.1557340  72.9892870  17.8017790  58.9124390
  72.5670140  16.8707680  57.7958440  77.5410590  18.4428150  52.1869890
  77.6623410  18.4014630  53.1355710  77.1559100  19.3052300  52.0316620
  76.5532090  20.7529290  51.5853190  75.9848990  20.3047540  50.9589100
  77.2621090  21.1122070  51.0518340  70.6438900  16.2461540  57.0722010
  70.3585820  15.8817210  57.9100630  70.5817760  15.5142000  56.4585150
  74.0979570  24.7487480  53.8579600  73.3241830  24.2085100  53.6978320
  74.8274200  24.2294090  53.5197360  84.8567550  23.7452840  59.6505990
  85.5766670  24.2408130  59.2602100  84.6549370  23.0670730  59.0059860
  80.3177490  15.1390800  53.7935380  79.5042100  14.6403970  53.7180690
  80.1239440  15.9789050  53.3771730  83.0325880  19.5110450  52.0897540
  83.9205500  19.8227680  51.9148880  83.0030970  18.6382700  51.6978120
  74.1416970  24.4167860  57.4958410  74.6595640  23.6136120  57.4415300
  73.6900990  24.3547000  58.3375240  79.0286470  25.6834140  52.7685710
  79.3702170  26.4276370  52.2729030  78.1999180  25.9965260  53.1310540
  85.3040150  20.8222290  51.5577400  85.2203870  21.2536510  50.7073840
  86.0234340  21.2820640  51.9904220  86.3327400  27.6764550  54.2859530
  85.6903560  27.0220170  54.5603250  85.9458060  28.0819640  53.5100200
  81.9113880  25.0049980  58.1331220  82.2637700  24.4078110  57.4732590
  81.0276210  24.6794210  58.3039470  77.9977160  25.7647670  55.5401630
  78.6848290  26.3116880  55.9209220  77.2109580  26.3088400  55.5751240
  70.1369560  21.3820490  51.0318710  71.0064410  21.6645290  51.3154630
  69.6459880  22.1956360  50.9167520  77.3004370  22.7693700  55.1526990
  77.7567150  23.5798950  55.3787180  76.9492580  22.4516840  55.9845480
  73.2016150  13.1131350  55.6249510  73.0730780  13.1049250  56.5734430
  72.3778170  13.4514440  55.2740520  84.7224780  26.5681010  50.8235880
  84.4962360  25.8511450  51.4160520  84.3320980  26.3193450  49.9857630
  70.5040810  30.5947870  51.5980340  70.8638450  31.1937210  50.9437610
  70.3633150  31.1407760  52.3715370  84.3041030  24.4852950  52.4850040
  84.0162730  24.9465640  53.2727920  85.0993200  24.0250720  52.7534260
  76.5209430  27.9779070  52.4154010  76.5119530  28.7108760  51.7998520
  75.6007790  27.7310650  52.5080970  72.1216070  23.1993960  53.1600770
  71.5144020  23.9392860  53.1696070  72.5965420  23.2893320  52.3338970
  85.0610890  16.3201720  53.6445220  84.4324050  16.4247390  52.9303450
  84.5662810  16.5398500  54.4339100  79.5069030  28.0407310  51.0779200
  79.6081010  27.8371300  50.1481180  78.6070770  27.7865590  51.2826980
  77.0294920  18.5987670  55.0603100  76.3211070  19.0674010  55.5016710
  77.3139400  17.9409680  55.6948290  81.0610350  15.3238330  56.4998890
  80.9378130  15.3424460  55.5508400  82.0094910  15.3717270  56.6197290
  78.1487140  30.5593630  55.7726870  78.4028640  30.5215020  54.8506240
  77.1999620  30.4326960  55.7655120  75.2329940  16.9072750  52.4353810
  76.0820470  17.3442900  52.3694000  74.8661210  17.2193010  53.2625870
  84.1539720  21.4785510  57.3485380  83.2129860  21.4935740  57.5233070
  84.4683790  20.6921470  57.7945680  74.1321360  23.1605110  50.9089340
  74.8984630  23.0486470  51.4714770  74.2096050  22.4643080  50.2566110
  72.8268120  20.5930180  51.5922230  72.9071710  19.6457690  51.7039630
  73.7187870  20.9237060  51.6982890  86.1565300  28.6494360  59.0239640
  86.2812720  29.4725530  59.4963450  87.0230860  28.4385090  58.6763790
  73.6282830  30.7425570  58.6956770  74.3645310  30.1941030  58.9665340
  74.0123750  31.6081580  58.5562760  70.5128310  26.8099140  54.5698280
  69.5868090  27.0520280  54.5603690  70.9784740  27.6373400  54.4483030
  76.7385140  29.9155880  50.5182340  77.5313750  30.2044710  50.0664130
  76.2189490  29.4848050  49.8394820  85.7915310  29.1426010  51.9419080
  85.5056820  28.7291150  51.1273260  85.5934860  30.0713720  51.8219600
  77.2562540  25.1359290  50.3824690  77.1513180  24.5211640  51.1086070
  77.0886760  24.6125180  49.5987700  80.4965270  24.1979320  50.9866680
  79.9475370  24.6448620  51.6309420  81.1184530  23.6928570  51.5104350
  76.1640390  23.1570240  52.8831980  76.5856810  22.9910110  53.7263370
  76.2891230  22.3470470  52.3887120  78.6768030  22.1807850  50.1309080
  79.1973690  21.4656870  49.7650230  79.3236430  22.8193720  50.4309590
  75.0599290  19.2303470  49.8290140  74.8588350  18.3670830  50.1903480
  74.8891340  19.1436830  48.8911740  82.5387600  14.0411700  52.3577020
  82.8189890  13.1979600  52.7136440  81.7653330  14.2734810  52.8715770
  73.8582090  16.3304090  49.8168020  74.1607990  16.3371520  48.9087170
  74.5976680  15.9801950  50.3135680  77.0767020  15.2738710  50.8024220
  76.7289020  14.5962700  50.2226670  77.2779790  14.8128220  51.6167610
  79.2416060  30.2619460  52.4210820  80.1366850  30.6004430  52.4429580
  79.2733690  29.5398870  51.7935100  72.8812220  25.6346510  50.6497820
  73.3187090  26.1776180  51.3055400  73.3659950  24.8093460  50.6594160
  70.0958020  28.4235540  58.1018080  70.4261030  27.5556600  57.8696720
  70.5249020  28.6294060  58.9323040  74.6919940  26.7544550  55.7620050
  74.3915480  26.6309520  56.6623960  74.5857430  25.8953140  55.3535780
  87.4611860  26.5340950  50.4646730  86.6304820  26.6017600  50.9353960
  87.6383690  27.4245070  50.1613590  86.9168320  23.2788430  52.9680930
  87.6787230  23.8485080  53.0740620  86.9322690  22.7115630  53.7389240
  70.4172660  21.8026360  57.1988590  69.7621500  21.5338000  56.5548290
  71.2550610  21.6930840  56.7490570  87.9228290  24.1338530  57.8122860
  88.2937120  23.3505850  57.4058830  88.5630220  24.8227630  57.6340160
  86.9687490  23.5722800  50.1253450  87.2436330  24.4801680  49.9972670
  86.7798230  23.5085330  51.0615440  83.3663100  16.5967650  51.4207080
  83.7847980  16.4098630  50.5803740  83.0599160  15.7446700  51.7310010
  86.8652830  21.5091790  55.1182880  86.4896430  20.7419720  54.6864170
  86.1355950  21.8914490  55.6057810  69.6310740  19.0125290  53.1413920
  68.7274820  19.2755490  52.9665580  70.1151360  19.2836460  52.3613880
  86.1403790  19.7349280  58.4190120  86.6641270  19.2411930  57.7880290
  86.7263210  19.8699640  59.1637690  72.1737950  18.0690830  51.0508300
  72.8829650  17.6474050  50.5655580  71.4577890  18.1366060  50.4191650
  71.8212110  14.1230160  50.0910950  72.5440240  14.6639100  50.4092170
  72.0936630  13.8493580  49.2152490  85.6303760  18.9922630  54.3582530
  86.1262880  18.7593500  55.1431410  85.4319830  18.1534470  53.9420170
  87.0590920  17.6283580  56.8920210  86.9490200  17.4739620  57.8302480
  87.8198510  17.1004520  56.6495620  87.9481190  15.4591500  50.1326350
  88.8730500  15.3272680  49.9244640  87.9256980  15.5384320  51.0862800
  88.0219680  16.2302160  52.7583060  87.2271180  16.1647280  53.2875970
  88.2262960  17.1652800  52.7468410  84.9638100  30.2693710  56.7521450
  85.5597170  29.9478280  56.0755870  85.2216250  29.7965530  57.5434720
  75.9446030  29.2277250  59.7567310  76.4611050  28.6164610  59.2315570
  76.5943410  29.7306030  60.2478320  84.4539610  14.5599040  59.2081890
  84.8947700  14.5044140  58.3603490  84.1847200  15.4757050  59.2792070
  86.3178180  14.1914280  57.2190710  86.2566580  13.2475500  57.0721730
  87.0970210  14.2994370  57.7644170  70.6230930  30.3306640  56.1814660
  70.4552970  29.6977320  56.8796550  69.7565440  30.5366040  55.8308850
  71.2458950  14.1623420  53.6846520  72.0038310  14.2752300  53.1110550
  70.7836120  14.9992620  53.6389950  77.7872760  16.2762690  56.6748830
  76.9747270  15.9019580  56.3344710  78.2914400  15.5207770  56.9770020
  82.2897740  12.9405140  57.9131900  82.8927110  13.5125350  58.3880420
  81.5490730  13.5044580  57.6905800  85.4332340  13.3426700  53.1872180
  85.6282970  14.2410150  53.4539610  84.6462210  13.1113780  53.6805130
  72.2293630  29.0239870  53.6264800  71.7041250  29.4047900  52.9226760
  72.1538210  29.6490640  54.3474510  73.6184100  14.6887470  52.2248490
  74.1476860  13.9017270  52.0956440  74.2512420  15.3678660  52.4584020
  75.8121940  14.4262610  55.2793880  75.1824680  13.7249920  55.4464010
  75.2727080  15.1866740  55.0627040  86.9858950  30.5827410  54.9478740
  87.1611140  29.8965150  54.3039660  86.2880520  31.1074460  54.5555410
  74.8286600  30.9722250  52.5014050  75.5605420  30.6881530  51.9537940
  75.0880270  30.7335530  53.3913430  73.9901390  27.0886980  52.5060380
  73.3610270  27.5572080  53.0546210  74.1049220  26.2436200  52.9406570
  73.5934980  23.2291470  41.4146610  72.7619860  22.9740180  41.8143120
  74.2015960  23.3002240  42.1504530  72.0026930  18.1893360  35.1989000
  71.1143630  18.5309330  35.0968880  72.2868120  17.9893680  34.3069830
  69.9659940  20.7899010  41.0828700  70.5376050  20.0221210  41.0832340
  69.9661480  21.0887770  40.1735310  71.2084810  16.1983370  42.8697630
  71.0287650  15.3009120  43.1500390  70.8064890  16.7455240  43.5444580
  80.0483310  18.3999230  40.7709940  80.4248130  17.5271110  40.6583610
  79.9502820  18.7357930  39.8800380  74.1788320  16.7724860  36.2327380
  74.2855070  17.6728590  36.5396140  73.2680680  16.7242830  35.9422030
  83.8307430  15.8949670  37.7038280  84.6517050  15.4046240  37.7463760
  83.8641510  16.4847330  38.4570120  71.8271480  18.6943870  41.4779970
  72.5081590  18.9582240  42.0967370  71.5119530  17.8544740  41.8117980
  88.1206980  17.9116420  44.2681910  87.4159150  18.2998130  43.7497020
  88.3864900  18.6066710  44.8702840  74.3032150  14.3809790  44.8315980
  74.3050590  14.8982180  44.0261880  73.4736460  13.9039970  44.8085910
  75.5535000  24.0204970  43.0089480  75.2204380  24.6473890  43.6510550
  75.7301680  24.5466850  42.2291150  84.0668910  17.8350050  40.4765820
  83.3624480  18.1234940  41.0568930  84.4281070  18.6450160  40.1165380
  73.9847480  16.0919750  42.8386430  74.3264290  16.9361800  42.5440300
  73.0463290  16.2403490  42.9551770  74.7654100  25.9885770  44.8238660
  75.3828100  26.6636850  44.5423110  73.9047220  26.3973750  44.7326160
  70.0586440  25.1785630  33.7045510  69.6814420  25.6672730  32.9730410
  70.3159510  25.8510910  34.3352040  87.1355830  17.2804840  40.8675030
  86.1880740  17.3143820  40.9990460  87.4605820  18.0943790  41.2524390
  77.6675370  13.5802020  39.1631020  77.9750350  13.0248910  38.4466520
  76.7376070  13.7146480  38.9804010  80.0425210  17.9167850  32.8958300
  79.1028880  18.0781810  32.9810760  80.3608470  18.6353530  32.3494290
  83.5279980  19.3855690  43.8192200  83.1151160  20.2109400  44.0732190
  82.7955930  18.8000730  43.6268560  74.3741390  18.9458800  42.4609910
  74.9255980  19.0554140  41.6863160  74.8884900  19.3196400  43.1765140
  75.2212900  25.5964840  47.4957880  74.3241430  25.8204810  47.7431280
  75.2465770  25.7199780  46.5469280  82.2618120  22.4457960  33.4099140
  82.7011400  21.6080390  33.2636960  82.9746540  23.0787360  33.4963280
  74.0484120  22.4678160  46.0715250  73.9091890  23.3400960  46.4402650
  73.1665480  22.1250970  45.9263190  75.8464470  28.4099860  48.2800400
  75.8179900  28.8142810  47.4128830  75.6829440  27.4810220  48.1172000
  85.8435260  13.7000770  31.7240180  85.5307920  13.7927600  32.6239250
  86.6047730  14.2781800  31.6737610  87.7979290  29.1926960  49.5764570
  88.2739010  29.6709850  50.2553650  88.4186450  29.1244450  48.8510070
  70.0002770  24.2375710  41.9886160  70.0783190  24.3724480  41.0441880
  70.6144450  23.5291600  42.1814280  87.2012540  26.3839810  46.7364580
  87.3275600  26.1451690  45.8181760  87.2433920  25.5524350  47.2086660
  81.0629280  30.0867810  45.3059390  81.5773950  29.9975820  46.1081820
  80.2198360  30.4327510  45.5987300  82.7409810  27.8810710  33.2941390
  82.0474970  27.8788000  32.6343670  83.4832670  27.4570030  32.8635560
  87.0536550  18.4372270  47.7014320  86.4380820  18.9451940  47.1729780
  86.7332970  17.5370600  47.6440260  70.0562290  25.2789880  44.5280620
  70.2193330  24.8095240  43.7099990  70.5214740  24.7713440  45.1929460
  74.8281060  14.4095640  39.5641190  74.3849210  15.1905180  39.2325710
  75.3866050  14.7325530  40.2712130  79.1150870  17.2764160  45.1676510
  78.6530240  17.4847180  45.9796450  78.7128980  16.4623510  44.8647180
  84.1155380  18.4973110  46.2973170  83.2648970  18.1978860  46.6182240
  83.9557170  18.7415120  45.3856990  81.2105090  19.9974860  48.3971960
  81.5358500  19.1638610  48.0574190  81.9985420  20.5203380  48.5450290
  77.9439880  14.0306340  34.4447020  77.3194060  14.0266210  35.1700330
  77.8570000  13.1637300  34.0482990  76.8656960  14.9542970  41.4230790
  77.1629290  15.8605800  41.3422810  77.4142520  14.4661750  40.8090360
  81.8493040  19.5392580  35.8913090  81.2501930  20.2628380  35.7076710
  82.3972650  19.4769360  35.1089540  77.0594490  20.4314790  47.9582710
  76.9638090  19.4909520  47.8083110  77.9026470  20.6529860  47.5630780
  80.4557910  18.1756120  37.9216370  80.8487480  18.4928320  37.1085060
  80.8174760  17.2968000  38.0360890  72.1905030  16.8428460  46.1116490
  71.7968420  17.6903670  46.3189270  71.5023430  16.2054830  46.3025130
  78.7650080  16.9263430  49.1813230  78.0748400  16.7335630  49.8159320
  79.5082380  17.2098070  49.7137530  69.4922080  14.7656920  40.1446570
  69.2035130  15.3359780  40.8571550  70.2367840  14.2861370  40.5077800
  69.6792310  18.7077040  31.3549290  69.5966980  19.6507800  31.4964280
  69.3275370  18.5651950  30.4761640  81.0413050  20.7661870  42.0167150
  80.3094170  21.2748680  42.3657250  80.6437390  19.9491850  41.7155930
  77.4790440  17.4416070  40.4219640  77.4826500  17.0006020  39.5724180
  78.3741560  17.7633400  40.5291460  73.3292820  17.3242560  39.3813850
  72.9892870  17.8017790  40.1380900  72.5670140  16.8707680  39.0214950
  77.5410590  18.4428150  33.4126400  77.6623410  18.4014630  34.3612220
  77.1559100  19.3052300  33.2573130  81.5038960  16.2195550  41.4290090
  81.5211700  16.6704200  42.2731940  81.2554540  15.3201190  41.6423530
  76.5532090  20.7529290  32.8109700  75.9848990  20.3047540  32.1845610
  77.2621090  21.1122070  32.2774850  84.9309710  13.6327730  47.2676470
  85.2555480  12.9017390  47.7934450  84.9666220  13.3141370  46.3657460
  71.6301270  24.6541310  46.6876430  71.2456060  24.0134980  47.2859390
  71.9413460  25.3577430  47.2571160  77.7798410  21.5017850  42.1685050
  78.1468540  21.0276420  42.9146390  77.5903470  22.3759420  42.5093390
  70.6438900  16.2461540  38.2978520  70.3585820  15.8817210  39.1357140
  70.5817760  15.5142000  37.6841660  75.5697780  20.5426490  44.4869260
  75.2654850  21.4218470  44.7119620  76.5244240  20.6026280  44.5226700
  80.3177490  15.1390800  35.0191890  79.5042100  14.6403970  34.9437200
  80.1239440  15.9789050  34.6028240  80.2386350  23.8161900  46.7631500
  80.1723660  22.8957570  46.5089090  79.6091490  23.9137340  47.4776140
  83.0325880  19.5110450  33.3154050  83.9205500  19.8227680  33.1405390
  83.0030970  18.6382700  32.9234630  79.0286470  25.6834140  33.9942220
  79.3702170  26.4276370  33.4985540  78.1999180  25.9965260  34.3567050
  71.6261510  21.3829230  45.6340620  71.2676450  22.0483080  46.2213960
  71.3316070  20.5512780  46.0053240  74.8274630  21.8413470  48.5180170
  74.5274770  21.9870650  47.6207990  75.5985870  21.2818760  48.4253560
  80.1703080  26.6382470  46.5135300  80.1847620  25.7063430  46.2954210
  79.4628180  26.7242230  47.1525070  85.3040150  20.8222290  32.7833910
  85.2203870  21.2536510  31.9330350  86.0234340  21.2820640  33.2160730
  86.3814290  23.2789810  45.8603880  85.6562480  23.8718590  45.6633270
  86.9089750  23.2713350  45.0617250  70.1369560  21.3820490  32.2575220
  71.0064410  21.6645290  32.5411140  69.6459880  22.1956360  32.1424030
  79.6036980  28.2800040  43.6075800  80.2479200  28.4859420  44.2849220
  79.9666420  27.5188440  43.1546650  73.2016150  13.1131350  36.8506020
  73.0730780  13.1049250  37.7990940  72.3778170  13.4514440  36.4997030
  84.7224780  26.5681010  32.0492390  84.4962360  25.8511450  32.6417030
  84.3320980  26.3193450  31.2114140  82.6506680  27.0827290  45.5289310
  82.9862920  27.6693980  46.2067230  81.7307020  26.9520000  45.7587100
  70.5040810  30.5947870  32.8236850  70.8638450  31.1937210  32.1694120
  70.3633150  31.1407760  33.5971880  70.2010080  14.8722470  46.3112720
  69.4868600  15.0719390  46.9165330  70.6205120  14.0962040  46.6827520
  84.3041030  24.4852950  33.7106550  84.0162730  24.9465640  34.4984430
  85.0993200  24.0250720  33.9790770  70.4882670  28.8602730  47.2979250
  70.5973790  27.9197470  47.1574640  69.8363230  29.1257480  46.6492980
  78.4795260  27.1318620  48.6977370  78.1592130  26.4127860  49.2423060
  77.8053620  27.8073690  48.7713430  72.1216070  23.1993960  34.3857280
  71.5144020  23.9392860  34.3952580  72.5965420  23.2893320  33.5595480
  81.6948860  17.3644780  44.0614170  82.0629680  16.5439990  44.3893740
  80.8347060  17.4246670  44.4769820  85.0610890  16.3201720  34.8701730
  84.4324050  16.4247390  34.1559960  84.5662810  16.5398500  35.6595610
  79.5069030  28.0407310  32.3035710  79.6081010  27.8371300  31.3737690
  78.6070770  27.7865590  32.5083490  77.0294920  18.5987670  36.2859610
  76.3211070  19.0674010  36.7273220  77.3139400  17.9409680  36.9204800
  78.6550850  20.0184370  44.2852140  79.1536100  20.4930190  44.9503990
  78.7973800  19.0947890  44.4922170  81.0610350  15.3238330  37.7255400
  80.9378130  15.3424460  36.7764910  82.0094910  15.3717270  37.8453800
  75.2329940  16.9072750  33.6610320  76.0820470  17.3442900  33.5950510
  74.8661210  17.2193010  34.4882380  85.8617710  16.2352330  45.1280530
  85.3591310  16.9757730  45.4674340  86.6774370  16.6236330  44.8117320
  84.1539720  21.4785510  38.5741890  83.2129860  21.4935740  38.7489580
  84.4683790  20.6921470  39.0202190  74.1321360  23.1605110  32.1345850
  74.8984630  23.0486470  32.6971280  74.2096050  22.4643080  31.4822620
  72.8268120  20.5930180  32.8178740  72.9071710  19.6457690  32.9296140
  73.7187870  20.9237060  32.9239400  70.5128310  26.8099140  35.7954790
  69.5868090  27.0520280  35.7860200  70.9784740  27.6373400  35.6739540
  72.6341110  29.9271640  49.1098860  73.4353840  30.2483690  49.5234260
  72.1192930  29.5667220  49.8318770  76.7385140  29.9155880  31.7438850
  77.5313750  30.2044710  31.2920640  76.2189490  29.4848050  31.0651330
  81.4705740  26.0351510  49.0574270  80.8643900  26.0583110  48.3170020
  81.1659850  25.3034550  49.5941520  82.9006110  29.7631800  47.6683680
  83.8527860  29.6789820  47.6183920  82.7534330  30.4273510  48.3417470
  85.7915310  29.1426010  33.1675590  85.5056820  28.7291150  32.3529770
  85.5934860  30.0713720  33.0476110  70.3538920  22.4145100  48.0534910
  70.8577940  21.8352380  48.6251140  69.6146340  22.6985330  48.5911280
  77.2562540  25.1359290  31.6081200  77.1513180  24.5211640  32.3342580
  77.0886760  24.6125180  30.8244210  77.4076860  23.8216090  47.5870430
  76.6422530  24.3901090  47.5025100  77.5892820  23.5292300  46.6938660
  80.4965270  24.1979320  32.2123190  79.9475370  24.6448620  32.8565930
  81.1184530  23.6928570  32.7360860  84.5500210  25.5521420  48.1445450
  85.2909680  25.8897180  47.6412910  83.7872890  25.7213480  47.5915220
  72.3862000  20.5574690  48.9484980  72.4267340  20.2588560  49.8570210
  73.2407500  20.9582300  48.7892500  74.3267810  19.1366790  46.9159470
  73.7964270  18.6457740  46.2882810  74.9955880  19.5650990  46.3817400
  78.6768030  22.1807850  31.3565590  79.1973690  21.4656870  30.9906740
  79.3236430  22.8193720  31.6566100  83.2245870  23.6036250  46.6800660
  83.6386890  23.7581330  47.5291080  82.2896870  23.7291470  46.8426440
  83.6968040  20.9432410  48.6839810  84.2788810  20.1884730  48.5960290
  83.8729810  21.4739850  47.9071290  74.8140110  16.1029160  46.9956760
  74.7196980  15.4849910  46.2707630  74.2337500  16.8295450  46.7686670
  77.5801550  14.6602400  44.0284150  77.1318850  14.6826660  43.1829700
  76.9466750  14.2621420  44.6254450  77.9861100  23.5556730  44.6496590
  78.4049210  24.3989460  44.4772830  77.0669730  23.6928770  44.4203370
  80.3225000  21.2872910  46.0334430  80.4421210  20.6914050  46.7729270
  81.1819000  21.3242600  45.6135730  82.6612900  21.8410100  44.6096940
  82.1348120  22.3652720  44.0062080  83.0044240  22.4737490  45.2406670
  75.0599290  19.2303470  31.0546650  74.8588350  18.3670830  31.4159990
  74.8891340  19.1436830  30.1168250  75.8368520  29.8609740  45.7654320
  75.2989610  30.5855800  45.4463020  76.0902480  29.3840080  44.9751660
  77.0893770  17.8294260  47.2910250  77.6793460  17.5210110  47.9788070
  76.2714010  17.3574010  47.4470150  81.9087200  17.4460070  47.5243270
  81.2202720  16.7841610  47.4593260  82.6293220  16.9998340  47.9691730
  82.5387600  14.0411700  33.5833530  82.8189890  13.1979600  33.9392950
  81.7653330  14.2734810  34.0972280  73.8582090  16.3304090  31.0424530
  74.1607990  16.3371520  30.1343680  74.5976680  15.9801950  31.5392190
  78.6930730  31.0960950  46.0240970  78.6189430  31.9996090  46.3313340
  77.7909570  30.7772850  45.9963040  77.0767020  15.2738710  32.0280730
  76.7289020  14.5962700  31.4483180  77.2779790  14.8128220  32.8424120
  79.2416060  30.2619460  33.6467330  80.1366850  30.6004430  33.6686090
  79.2733690  29.5398870  33.0191610  72.8812220  25.6346510  31.8754330
  73.3187090  26.1776180  32.5311910  73.3659950  24.8093460  31.8850670
  70.0958020  28.4235540  39.3274590  70.4261030  27.5556600  39.0953230
  70.5249020  28.6294060  40.1579550  70.5848230  29.2906130  42.0656220
  70.1479220  29.4706930  42.8980370  71.1525910  30.0480750  41.9237940
  86.2210410  28.7923130  46.3533530  85.6212400  28.8515690  45.6097450
  86.3504310  27.8528110  46.4830380  87.4611860  26.5340950  31.6903240
  86.6304820  26.6017600  32.1610470  87.6383690  27.4245070  31.3870100
  86.9168320  23.2788430  34.1937440  87.6787230  23.8485080  34.2997130
  86.9322690  22.7115630  34.9645750  70.4172660  21.8026360  38.4245100
  69.7621500  21.5338000  37.7804800  71.2550610  21.6930840  37.9747080
  84.9062050  25.5175110  44.4509690  84.0921890  25.9472270  44.7135480
  85.3136250  26.1293520  43.8378740  86.9687490  23.5722800  31.3509960
  87.2436330  24.4801680  31.2229180  86.7798230  23.5085330  32.2871950
  83.3663100  16.5967650  32.6463590  83.7847980  16.4098630  31.8060250
  83.0599160  15.7446700  32.9566520  86.8652830  21.5091790  36.3439390
  86.4896430  20.7419720  35.9120680  86.1355950  21.8914490  36.8314320
  71.4548590  22.1878930  42.9648440  71.8221630  22.1006330  43.8444460
  70.8859410  21.4245480  42.8655300  86.2552450  20.6563310  45.9778910
  86.0238540  20.4276060  45.0776860  86.5157000  21.5762860  45.9323800
  71.0064590  19.0988020  46.8706860  70.1120640  19.0654780  47.2100570
  71.5462140  19.2974810  47.6358110  84.6940520  15.8819740  48.7558610
  85.5710700  15.8903140  49.1392610  84.7061360  15.1450580  48.1450960
  69.6310740  19.0125290  34.3670430  68.7274820  19.2755490  34.1922090
  70.1151360  19.2836460  33.5870390  86.1403790  19.7349280  39.6446630
  86.6641270  19.2411930  39.0136800  86.7263210  19.8699640  40.3894200
  86.3193510  19.8189150  43.1666180  85.3696220  19.7852690  43.2811170
  86.5006520  20.7289260  42.9315950  72.1737950  18.0690830  32.2764810
  72.8829650  17.6474050  31.7912090  71.4577890  18.1366060  31.6448160
  71.8212110  14.1230160  31.3167460  72.5440240  14.6639100  31.6348680
  72.0936630  13.8493580  30.4409000  85.6303760  18.9922630  35.5839040
  86.1262880  18.7593500  36.3687920  85.4319830  18.1534470  35.1676680
  71.5104300  13.3736350  41.2190080  72.1580490  12.8233730  40.7785240
  71.9306140  13.6279500  42.0405890  87.0590920  17.6283580  38.1176720
  86.9490200  17.4739620  39.0558990  87.8198510  17.1004520  37.8752130
  85.4056640  13.5677710  44.5759720  86.0428860  14.1811850  44.9418910
  85.5531530  13.6038370  43.6308950  87.9481190  15.4591500  31.3582860
  88.8730500  15.3272680  31.1501150  87.9256980  15.5384320  32.3119310
  71.2636300  13.5292020  43.9615400  70.9151120  13.9855840  44.7273580
  70.9324000  12.6349150  44.0437830  72.8700670  26.7011620  48.1268590
  72.8270300  26.3304530  49.0083050  73.0011680  27.6389190  48.2670410
  76.5706700  28.2571210  43.7278310  76.3298060  28.5245770  42.8408830
  77.5109340  28.4276940  43.7829170  78.7761120  14.7203900  47.4834820
  78.7150010  15.3125730  48.2330230  79.7161500  14.6129860  47.3385080
  81.4135680  14.3773960  47.1227110  82.0276090  14.6953250  46.4608190
  81.9585240  13.8922550  47.7422970  71.9356940  13.0568220  47.2366170
  72.4839930  12.8756270  46.4732280  72.0012250  12.2662330  47.7722480
  72.7088700  29.6473870  45.2466370  72.1149020  29.5158570  45.9856410
  72.7012540  28.8112010  44.7808470  82.1543720  12.9406100  43.4496400
  81.2803560  13.2741210  43.2469330  82.0454470  12.4679280  44.2748270
  83.0615700  15.1476970  44.8338120  82.7329060  14.3328730  44.4539850
  84.0098000  15.1046780  44.7103810  72.3400930  27.0132250  44.1974410
  71.6134990  26.3937540  44.1300360  72.4010080  27.4072860  43.3272490
  79.9018540  13.8575940  42.3889310  79.1190330  14.3321440  42.6686070
  79.6081470  12.9530770  42.2802490  84.4539610  14.5599040  40.4338400
  84.8947700  14.5044140  39.5860000  84.1847200  15.4757050  40.5048580
  86.3178180  14.1914280  38.4447220  86.2566580  13.2475500  38.2978240
  87.0970210  14.2994370  38.9900680  70.6230930  30.3306640  37.4071170
  70.4552970  29.6977320  38.1053060  69.7565440  30.5366040  37.0565360
  71.2458950  14.1623420  34.9103030  72.0038310  14.2752300  34.3367060
  70.7836120  14.9992620  34.8646460  77.7872760  16.2762690  37.9005340
  76.9747270  15.9019580  37.5601220  78.2914400  15.5207770  38.2026530
  82.2897740  12.9405140  39.1388410  82.8927110  13.5125350  39.6136930
  81.5490730  13.5044580  38.9162310  85.4332340  13.3426700  34.4128690
  85.6282970  14.2410150  34.6796120  84.6462210  13.1113780  34.9061640
  73.6184100  14.6887470  33.4505000  74.1476860  13.9017270  33.3212950
  74.2512420  15.3678660  33.6840530  75.8121940  14.4262610  36.5050390
  75.1824680  13.7249920  36.6720520  75.2727080  15.1866740  36.2883550
  78.7513890  31.0401840  49.1761000  79.6781200  30.8046110  49.2196960
  78.7364320  31.8673840  48.6947030  86.9858950  30.5827410  36.1735250
  87.1611140  29.8965150  35.5296170  86.2880520  31.1074460  35.7811920
  75.9377500  13.7046590  48.9402880  75.6561770  14.2080190  48.1763700
  76.3197200  12.9068340  48.5745010  74.8286600  30.9722250  33.7270560
  75.5605420  30.6881530  33.1794450  75.0880270  30.7335530  34.6169940
  73.9901390  27.0886980  33.7316890  73.3610270  27.5572080  34.2802720
  74.1049220  26.2436200  34.1663080  82.5392960  13.1200170  49.5183350
  82.4258410  13.4394780  50.4134870  83.3562700  13.5212680  49.2220630
  85.3191450  30.2671700  49.0002040  86.1116770  29.7720930  48.7928000
  85.6124600  30.9461840  49.6077650  81.4451110  21.1392640  19.8818090
  81.3645160  20.2247250  19.6109800  81.0315530  21.6359710  19.1757800
  79.5769150  22.9171660  21.7627360  78.8011250  22.4372100  22.0525930
  80.2282080  22.2377310  21.5883520  73.5934980  23.2291470  22.6403120
  72.7619860  22.9740180  23.0399630  74.2015960  23.3002240  23.3761040
  83.5976580  27.3231850  20.5426490  83.1358110  26.5519090  20.8713660
  84.4102130  27.3497920  21.0478940  73.5736240  27.2631560  22.8361140
  73.8764280  26.3729300  22.6571360  74.3179830  27.8201780  22.6083390
  72.0026930  18.1893360  16.4245510  71.1143630  18.5309330  16.3225390
  72.2868120  17.9893680  15.5326340  69.9659940  20.7899010  22.3085210
  70.5376050  20.0221210  22.3088850  69.9661480  21.0887770  21.3991820
  79.8239890  29.6089860  20.1630480  79.2051330  30.0647360  19.5924920
  80.6791670  29.7641320  19.7620180  79.0178140  25.5928850  21.7697520
  78.9486420  24.6518790  21.6086650  79.7798000  25.6830260  22.3420090
  71.2084810  16.1983370  24.0954140  71.0287650  15.3009120  24.3756900
  70.8064890  16.7455240  24.7701090  80.0483310  18.3999230  21.9966450
  80.4248130  17.5271110  21.8840120  79.9502820  18.7357930  21.1056890
  74.1788320  16.7724860  17.4583890  74.2855070  17.6728590  17.7652650
  73.2680680  16.7242830  17.1678540  83.8307430  15.8949670  18.9294790
  84.6517050  15.4046240  18.9720270  83.8641510  16.4847330  19.6826630
  71.8271480  18.6943870  22.7036480  72.5081590  18.9582240  23.3223880
  71.5119530  17.8544740  23.0374490  76.0196050  19.7411230  21.7909070
  76.5274270  20.2392200  22.4314090  76.5509290  18.9646430  21.6148430
  88.1206980  17.9116420  25.4938420  87.4159150  18.2998130  24.9753530
  88.3864900  18.6066710  26.0959350  74.3032150  14.3809790  26.0572490
  74.3050590  14.8982180  25.2518390  73.4736460  13.9039970  26.0342420
  80.6903240  24.4929100  17.5562390  80.0720510  24.9578550  16.9925110
  81.2026490  25.1856580  17.9731900  75.5535000  24.0204970  24.2345990
  75.2204380  24.6473890  24.8767060  75.7301680  24.5466850  23.4547660
  84.0668910  17.8350050  21.7022330  83.3624480  18.1234940  22.2825440
  84.4281070  18.6450160  21.3421890  73.9847480  16.0919750  24.0642940
  74.3264290  16.9361800  23.7696810  73.0463290  16.2403490  24.1808280
  74.7654100  25.9885770  26.0495170  75.3828100  26.6636850  25.7679620
  73.9047220  26.3973750  25.9582670  70.0586440  25.1785630  14.9302020
  69.6814420  25.6672730  14.1986920  70.3159510  25.8510910  15.5608550
  85.6831690  27.4525180  23.9649810  84.9995210  28.1224290  23.9566480
  86.2225980  27.6505830  23.1994670  87.1355830  17.2804840  22.0931540
  86.1880740  17.3143820  22.2246970  87.4605820  18.0943790  22.4780900
  77.6675370  13.5802020  20.3887530  77.9750350  13.0248910  19.6723030
  76.7376070  13.7146480  20.2060520  83.2190430  29.2969310  22.6794990
  83.2317590  28.8931600  21.8117250  82.6665650  30.0716600  22.5756420
  84.5135850  26.0185530  17.7685160  84.4032180  25.0759860  17.8934580
  84.5104100  26.3801170  18.6547920  82.6175870  24.1999150  24.0077600
  83.0344660  23.9859260  23.1731060  83.3415690  24.4571940  24.5786220
  80.0556130  21.6450850  17.1247650  79.1285410  21.5788230  17.3536120
  80.2080950  22.5830980  17.0102890  80.0425210  17.9167850  14.1214810
  79.1028880  18.0781810  14.2067270  80.3608470  18.6353530  13.5750800
  84.0853420  23.2071150  17.6282900  83.4665840  22.8690700  16.9809200
  84.0677870  22.5630910  18.3362090  83.5279980  19.3855690  25.0448710
  83.1151160  20.2109400  25.2988700  82.7955930  18.8000730  24.8525070
  75.6612770  22.1715590  19.9067380  75.2569770  21.4592840  19.4113280
  75.7475890  21.8268830  20.7955420  76.1294470  25.8583150  22.0706590
  75.8322760  25.2528620  21.3914370  77.0794290  25.8960460  21.9595950
  74.3741390  18.9458800  23.6866420  74.9255980  19.0554140  22.9119670
  74.8884900  19.3196400  24.4021650  84.2180080  29.4315020  25.7329690
  83.7410640  30.2387210  25.5402300  83.5341870  28.7793350  25.8855900
  75.2212900  25.5964840  28.7214390  74.3241430  25.8204810  28.9687790
  75.2465770  25.7199780  27.7725790  82.2618120  22.4457960  14.6355650
  82.7011400  21.6080390  14.4893470  82.9746540  23.0787360  14.7219790
  74.0484120  22.4678160  27.2971760  73.9091890  23.3400960  27.6659160
  73.1665480  22.1250970  27.1519700  80.3713500  27.3854030  18.6036890
  80.8109410  28.1278360  18.1892280  80.3100390  27.6280600  19.5275850
  75.8464470  28.4099860  29.5056910  75.8179900  28.8142810  28.6385340
  75.6829440  27.4810220  29.3428510  85.8435260  13.7000770  12.9496690
  85.5307920  13.7927600  13.8495760  86.6047730  14.2781800  12.8994120
  72.3617400  21.0660570  17.4074030  72.2415000  21.7922660  16.7955300
  72.0518290  20.2963480  16.9301940  87.7979290  29.1926960  30.8021080
  88.2739010  29.6709850  31.4810160  88.4186450  29.1244450  30.0766580
  70.0002770  24.2375710  23.2142670  70.0783190  24.3724480  22.2698390
  70.6144450  23.5291600  23.4070790  71.2450400  25.9375900  19.6248850
  70.8378480  26.0790490  18.7702450  72.1363410  25.6536060  19.4220060
  87.2012540  26.3839810  27.9621090  87.3275600  26.1451690  27.0438270
  87.2433920  25.5524350  28.4343170  81.0629280  30.0867810  26.5315900
  81.5773950  29.9975820  27.3338330  80.2198360  30.4327510  26.8243810
  83.0383680  30.3723150  15.9599900  82.8784820  30.0826090  16.8581730
  82.8730390  29.5963280  15.4245130  75.5172060  30.1521680  17.7371520
  75.3414540  29.2357220  17.5239320  74.6627800  30.5108970  17.9769320
  82.7409810  27.8810710  14.5197900  82.0474970  27.8788000  13.8600180
  83.4832670  27.4570030  14.0892070  82.3059740  29.5073420  18.5946390
  82.7616690  28.7262800  18.9085010  82.6452260  30.2180240  19.1387570
  87.0536550  18.4372270  28.9270830  86.4380820  18.9451940  28.3986290
  86.7332970  17.5370600  28.8696770  70.0562290  25.2789880  25.7537130
  70.2193330  24.8095240  24.9356500  70.5214740  24.7713440  26.4185970
  74.8281060  14.4095640  20.7897700  74.3849210  15.1905180  20.4582220
  75.3866050  14.7325530  21.4968640  79.1150870  17.2764160  26.3933020
  78.6530240  17.4847180  27.2052960  78.7128980  16.4623510  26.0903690
  84.1155380  18.4973110  27.5229680  83.2648970  18.1978860  27.8438750
  83.9557170  18.7415120  26.6113500  81.2105090  19.9974860  29.6228470
  81.5358500  19.1638610  29.2830700  81.9985420  20.5203380  29.7706800
  77.9439880  14.0306340  15.6703530  77.3194060  14.0266210  16.3956840
  77.8570000  13.1637300  15.2739500  76.8656960  14.9542970  22.6487300
  77.1629290  15.8605800  22.5679320  77.4142520  14.4661750  22.0346870
  74.6195280  19.5329210  18.5178950  74.3936200  19.3166380  19.4225570
  73.8387810  19.9657670  18.1724920  81.8493040  19.5392580  17.1169600
  81.2501930  20.2628380  16.9333220  82.3972650  19.4769360  16.3346050
  77.0594490  20.4314790  29.1839220  76.9638090  19.4909520  29.0339620
  77.9026470  20.6529860  28.7887290  80.4557910  18.1756120  19.1472880
  80.8487480  18.4928320  18.3341570  80.8174760  17.2968000  19.2617400
  72.1905030  16.8428460  27.3373000  71.7968420  17.6903670  27.5445780
  71.5023430  16.2054830  27.5281640  78.7650080  16.9263430  30.4069740
  78.0748400  16.7335630  31.0415830  79.5082380  17.2098070  30.9394040
  69.4922080  14.7656920  21.3703080  69.2035130  15.3359780  22.0828060
  70.2367840  14.2861370  21.7334310  69.6792310  18.7077040  12.5805800
  69.5966980  19.6507800  12.7220790  69.3275370  18.5651950  11.7018150
  81.0413050  20.7661870  23.2423660  80.3094170  21.2748680  23.5913760
  80.6437390  19.9491850  22.9412440  77.4790440  17.4416070  21.6476150
  77.4826500  17.0006020  20.7980690  78.3741560  17.7633400  21.7547970
  73.3292820  17.3242560  20.6070360  72.9892870  17.8017790  21.3637410
  72.5670140  16.8707680  20.2471460  77.5410590  18.4428150  14.6382910
  77.6623410  18.4014630  15.5868730  77.1559100  19.3052300  14.4829640
  81.5038960  16.2195550  22.6546600  81.5211700  16.6704200  23.4988450
  81.2554540  15.3201190  22.8680040  76.5532090  20.7529290  14.0366210
  75.9848990  20.3047540  13.4102120  77.2621090  21.1122070  13.5031360
  84.9309710  13.6327730  28.4932980  85.2555480  12.9017390  29.0190960
  84.9666220  13.3141370  27.5913970  71.6301270  24.6541310  27.9132940
  71.2456060  24.0134980  28.5115900  71.9413460  25.3577430  28.4827670
  77.7798410  21.5017850  23.3941560  78.1468540  21.0276420  24.1402900
  77.5903470  22.3759420  23.7349900  70.6438900  16.2461540  19.5235030
  70.3585820  15.8817210  20.3613650  70.5817760  15.5142000  18.9098170
  75.5697780  20.5426490  25.7125770  75.2654850  21.4218470  25.9376130
  76.5244240  20.6026280  25.7483210  74.0979570  24.7487480  16.3092620
  73.3241830  24.2085100  16.1491340  74.8274200  24.2294090  15.9710380
  84.8567550  23.7452840  22.1019010  85.5766670  24.2408130  21.7115120
  84.6549370  23.0670730  21.4572880  80.3177490  15.1390800  16.2448400
  79.5042100  14.6403970  16.1693710  80.1239440  15.9789050  15.8284750
  80.2386350  23.8161900  27.9888010  80.1723660  22.8957570  27.7345600
  79.6091490  23.9137340  28.7032650  83.0325880  19.5110450  14.5410560
  83.9205500  19.8227680  14.3661900  83.0030970  18.6382700  14.1491140
  74.1416970  24.4167860  19.9471430  74.6595640  23.6136120  19.8928320
  73.6900990  24.3547000  20.7888260  79.0286470  25.6834140  15.2198730
  79.3702170  26.4276370  14.7242050  78.1999180  25.9965260  15.5823560
  71.6261510  21.3829230  26.8597130  71.2676450  22.0483080  27.4470470
  71.3316070  20.5512780  27.2309750  74.8274630  21.8413470  29.7436680
  74.5274770  21.9870650  28.8464500  75.5985870  21.2818760  29.6510070
  80.1703080  26.6382470  27.7391810  80.1847620  25.7063430  27.5210720
  79.4628180  26.7242230  28.3781580  85.3040150  20.8222290  14.0090420
  85.2203870  21.2536510  13.1586860  86.0234340  21.2820640  14.4417240
  86.3814290  23.2789810  27.0860390  85.6562480  23.8718590  26.8889780
  86.9089750  23.2713350  26.2873760  86.3327400  27.6764550  16.7372550
  85.6903560  27.0220170  17.0116270  85.9458060  28.0819640  15.9613220
  81.9113880  25.0049980  20.5844240  82.2637700  24.4078110  19.9245610
  81.0276210  24.6794210  20.7552490  77.9977160  25.7647670  17.9914650
  78.6848290  26.3116880  18.3722240  77.2109580  26.3088400  18.0264260
  70.1369560  21.3820490  13.4831730  71.0064410  21.6645290  13.7667650
  69.6459880  22.1956360  13.3680540  77.3004370  22.7693700  17.6040010
  77.7567150  23.5798950  17.8300200  76.9492580  22.4516840  18.4358500
  79.6036980  28.2800040  24.8332310  80.2479200  28.4859420  25.5105730
  79.9666420  27.5188440  24.3803160  73.2016150  13.1131350  18.0762530
  73.0730780  13.1049250  19.0247450  72.3778170  13.4514440  17.7253540
  80.8769060  26.2832390  23.5509760  81.5191290  25.5825550  23.6641930
  81.4018410  27.0630830  23.3706650  84.7224780  26.5681010  13.2748900
  84.4962360  25.8511450  13.8673540  84.3320980  26.3193450  12.4370650
  82.6506680  27.0827290  26.7545820  82.9862920  27.6693980  27.4323740
  81.7307020  26.9520000  26.9843610  70.5040810  30.5947870  14.0493360
  70.8638450  31.1937210  13.3950630  70.3633150  31.1407760  14.8228390
  70.2010080  14.8722470  27.5369230  69.4868600  15.0719390  28.1421840
  70.6205120  14.0962040  27.9084030  84.3041030  24.4852950  14.9363060
  84.0162730  24.9465640  15.7240940  85.0993200  24.0250720  15.2047280
  70.4882670  28.8602730  28.5235760  70.5973790  27.9197470  28.3831150
  69.8363230  29.1257480  27.8749490  78.4795260  27.1318620  29.9233880
  78.1592130  26.4127860  30.4679570  77.8053620  27.8073690  29.9969940
  76.5209430  27.9779070  14.8667030  76.5119530  28.7108760  14.2511540
  75.6007790  27.7310650  14.9593990  72.1216070  23.1993960  15.6113790
  71.5144020  23.9392860  15.6209090  72.5965420  23.2893320  14.7851990
  81.6948860  17.3644780  25.2870680  82.0629680  16.5439990  25.6150250
  80.8347060  17.4246670  25.7026330  85.0610890  16.3201720  16.0958240
  84.4324050  16.4247390  15.3816470  84.5662810  16.5398500  16.8852120
  79.5069030  28.0407310  13.5292220  79.6081010  27.8371300  12.5994200
  78.6070770  27.7865590  13.7340000  77.0294920  18.5987670  17.5116120
  76.3211070  19.0674010  17.9529730  77.3139400  17.9409680  18.1461310
  78.6550850  20.0184370  25.5108650  79.1536100  20.4930190  26.1760500
  78.7973800  19.0947890  25.7178680  81.0610350  15.3238330  18.9511910
  80.9378130  15.3424460  18.0021420  82.0094910  15.3717270  19.0710310
  78.1487140  30.5593630  18.2239890  78.4028640  30.5215020  17.3019260
  77.1999620  30.4326960  18.2168140  75.2329940  16.9072750  14.8866830
  76.0820470  17.3442900  14.8207020  74.8661210  17.2193010  15.7138890
  85.8617710  16.2352330  26.3537040  85.3591310  16.9757730  26.6930850
  86.6774370  16.6236330  26.0373830  84.1539720  21.4785510  19.7998400
  83.2129860  21.4935740  19.9746090  84.4683790  20.6921470  20.2458700
  74.1321360  23.1605110  13.3602360  74.8984630  23.0486470  13.9227790
  74.2096050  22.4643080  12.7079130  72.8268120  20.5930180  14.0435250
  72.9071710  19.6457690  14.1552650  73.7187870  20.9237060  14.1495910
  86.1565300  28.6494360  21.4752660  86.2812720  29.4725530  21.9476470
  87.0230860  28.4385090  21.1276810  73.6282830  30.7425570  21.1469790
  74.3645310  30.1941030  21.4178360  74.0123750  31.6081580  21.0075780
  70.5128310  26.8099140  17.0211300  69.5868090  27.0520280  17.0116710
  70.9784740  27.6373400  16.8996050  72.6341110  29.9271640  30.3355370
  73.4353840  30.2483690  30.7490770  72.1192930  29.5667220  31.0575280
  76.7385140  29.9155880  12.9695360  77.5313750  30.2044710  12.5177150
  76.2189490  29.4848050  12.2907840  81.4705740  26.0351510  30.2830780
  80.8643900  26.0583110  29.5426530  81.1659850  25.3034550  30.8198030
  82.9006110  29.7631800  28.8940190  83.8527860  29.6789820  28.8440430
  82.7534330  30.4273510  29.5673980  85.7915310  29.1426010  14.3932100
  85.5056820  28.7291150  13.5786280  85.5934860  30.0713720  14.2732620
  70.3538920  22.4145100  29.2791420  70.8577940  21.8352380  29.8507650
  69.6146340  22.6985330  29.8167790  77.2562540  25.1359290  12.8337710
  77.1513180  24.5211640  13.5599090  77.0886760  24.6125180  12.0500720
  77.4076860  23.8216090  28.8126940  76.6422530  24.3901090  28.7281610
  77.5892820  23.5292300  27.9195170  80.4965270  24.1979320  13.4379700
  79.9475370  24.6448620  14.0822440  81.1184530  23.6928570  13.9617370
  84.5500210  25.5521420  29.3701960  85.2909680  25.8897180  28.8669420
  83.7872890  25.7213480  28.8171730  72.3862000  20.5574690  30.1741490
  72.4267340  20.2588560  31.0826720  73.2407500  20.9582300  30.0149010
  76.1640390  23.1570240  15.3345000  76.5856810  22.9910110  16.1776390
  76.2891230  22.3470470  14.8400140  74.3267810  19.1366790  28.1415980
  73.7964270  18.6457740  27.5139320  74.9955880  19.5650990  27.6073910
  78.6768030  22.1807850  12.5822100  79.1973690  21.4656870  12.2163250
  79.3236430  22.8193720  12.8822610  83.2245870  23.6036250  27.9057170
  83.6386890  23.7581330  28.7547590  82.2896870  23.7291470  28.0682950
  83.6968040  20.9432410  29.9096320  84.2788810  20.1884730  29.8216800
  83.8729810  21.4739850  29.1327800  74.8140110  16.1029160  28.2213270
  74.7196980  15.4849910  27.4964140  74.2337500  16.8295450  27.9943180
  77.5801550  14.6602400  25.2540660  77.1318850  14.6826660  24.4086210
  76.9466750  14.2621420  25.8510960  77.9861100  23.5556730  25.8753100
  78.4049210  24.3989460  25.7029340  77.0669730  23.6928770  25.6459880
  80.3225000  21.2872910  27.2590940  80.4421210  20.6914050  27.9985780
  81.1819000  21.3242600  26.8392240  82.6612900  21.8410100  25.8353450
  82.1348120  22.3652720  25.2318590  83.0044240  22.4737490  26.4663180
  75.0599290  19.2303470  12.2803160  74.8588350  18.3670830  12.6416500
  74.8891340  19.1436830  11.3424760  75.8368520  29.8609740  26.9910830
  75.2989610  30.5855800  26.6719530  76.0902480  29.3840080  26.2008170
  77.0893770  17.8294260  28.5166760  77.6793460  17.5210110  29.2044580
  76.2714010  17.3574010  28.6726660  81.9087200  17.4460070  28.7499780
  81.2202720  16.7841610  28.6849770  82.6293220  16.9998340  29.1948240
  82.5387600  14.0411700  14.8090040  82.8189890  13.1979600  15.1649460
  81.7653330  14.2734810  15.3228790  73.8582090  16.3304090  12.2681040
  74.1607990  16.3371520  11.3600190  74.5976680  15.9801950  12.7648700
  78.6930730  31.0960950  27.2497480  78.6189430  31.9996090  27.5569850
  77.7909570  30.7772850  27.2219550  77.0767020  15.2738710  13.2537240
  76.7289020  14.5962700  12.6739690  77.2779790  14.8128220  14.0680630
  79.2416060  30.2619460  14.8723840  80.1366850  30.6004430  14.8942600
  79.2733690  29.5398870  14.2448120  72.8812220  25.6346510  13.1010840
  73.3187090  26.1776180  13.7568420  73.3659950  24.8093460  13.1107180
  70.0958020  28.4235540  20.5531100  70.4261030  27.5556600  20.3209740
  70.5249020  28.6294060  21.3836060  74.6919940  26.7544550  18.2133070
  74.3915480  26.6309520  19.1136980  74.5857430  25.8953140  17.8048800
  70.5848230  29.2906130  23.2912730  70.1479220  29.4706930  24.1236880
  71.1525910  30.0480750  23.1494450  86.2210410  28.7923130  27.5790040
  85.6212400  28.8515690  26.8353960  86.3504310  27.8528110  27.7086890
  87.4611860  26.5340950  12.9159750  86.6304820  26.6017600  13.3866980
  87.6383690  27.4245070  12.6126610  86.9168320  23.2788430  15.4193950
  87.6787230  23.8485080  15.5253640  86.9322690  22.7115630  16.1902260
  70.4172660  21.8026360  19.6501610  69.7621500  21.5338000  19.0061310
  71.2550610  21.6930840  19.2003590  87.9228290  24.1338530  20.2635880
  88.2937120  23.3505850  19.8571850  88.5630220  24.8227630  20.0853180
  84.9062050  25.5175110  25.6766200  84.0921890  25.9472270  25.9391990
  85.3136250  26.1293520  25.0635250  86.9687490  23.5722800  12.5766470
  87.2436330  24.4801680  12.4485690  86.7798230  23.5085330  13.5128460
  83.3663100  16.5967650  13.8720100  83.7847980  16.4098630  13.0316760
  83.0599160  15.7446700  14.1823030  86.8652830  21.5091790  17.5695900
  86.4896430  20.7419720  17.1377190  86.1355950  21.8914490  18.0570830
  71.4548590  22.1878930  24.1904950  71.8221630  22.1006330  25.0700970
  70.8859410  21.4245480  24.0911810  86.2552450  20.6563310  27.2035420
  86.0238540  20.4276060  26.3033370  86.5157000  21.5762860  27.1580310
  71.0064590  19.0988020  28.0963370  70.1120640  19.0654780  28.4357080
  71.5462140  19.2974810  28.8614620  84.6940520  15.8819740  29.9815120
  85.5710700  15.8903140  30.3649120  84.7061360  15.1450580  29.3707470
  69.6310740  19.0125290  15.5926940  68.7274820  19.2755490  15.4178600
  70.1151360  19.2836460  14.8126900  86.1403790  19.7349280  20.8703140
  86.6641270  19.2411930  20.2393310  86.7263210  19.8699640  21.6150710
  86.3193510  19.8189150  24.3922690  85.3696220  19.7852690  24.5067680
  86.5006520  20.7289260  24.1572460  72.1737950  18.0690830  13.5021320
  72.8829650  17.6474050  13.0168600  71.4577890  18.1366060  12.8704670
  71.8212110  14.1230160  12.5423970  72.5440240  14.6639100  12.8605190
  72.0936630  13.8493580  11.6665510  85.6303760  18.9922630  16.8095550
  86.1262880  18.7593500  17.5944430  85.4319830  18.1534470  16.3933190
  71.5104300  13.3736350  22.4446590  72.1580490  12.8233730  22.0041750
  71.9306140  13.6279500  23.2662400  87.0590920  17.6283580  19.3433230
  86.9490200  17.4739620  20.2815500  87.8198510  17.1004520  19.1008640
  85.4056640  13.5677710  25.8016230  86.0428860  14.1811850  26.1675420
  85.5531530  13.6038370  24.8565460  87.9481190  15.4591500  12.5839370
  88.8730500  15.3272680  12.3757660  87.9256980  15.5384320  13.5375820
  88.0219680  16.2302160  15.2096080  87.2271180  16.1647280  15.7388990
  88.2262960  17.1652800  15.1981430  84.9638100  30.2693710  19.2034470
  85.5597170  29.9478280  18.5268890  85.2216250  29.7965530  19.9947740
  71.2636300  13.5292020  25.1871910  70.9151120  13.9855840  25.9530090
  70.9324000  12.6349150  25.2694340  72.8700670  26.7011620  29.3525100
  72.8270300  26.3304530  30.2339560  73.0011680  27.6389190  29.4926920
  76.5706700  28.2571210  24.9534820  76.3298060  28.5245770  24.0665340
  77.5109340  28.4276940  25.0085680  78.7761120  14.7203900  28.7091330
  78.7150010  15.3125730  29.4586740  79.7161500  14.6129860  28.5641590
  81.4135680  14.3773960  28.3483620  82.0276090  14.6953250  27.6864700
  81.9585240  13.8922550  28.9679480  87.8310860  30.2765590  25.7545460
  87.3369140  30.6734460  25.0372590  87.2224150  29.6514800  26.1482740
  71.9356940  13.0568220  28.4622680  72.4839930  12.8756270  27.6988790
  72.0012250  12.2662330  28.9978990  72.7088700  29.6473870  26.4722880
  72.1149020  29.5158570  27.2112920  72.7012540  28.8112010  26.0064980
  82.1543720  12.9406100  24.6752910  81.2803560  13.2741210  24.4725840
  82.0454470  12.4679280  25.5004780  83.0615700  15.1476970  26.0594630
  82.7329060  14.3328730  25.6796360  84.0098000  15.1046780  25.9360320
  85.5150310  30.9189010  23.0332200  85.0553280  31.6704820  22.6590220
  84.8862770  30.1995480  22.9747000  72.3400930  27.0132250  25.4230920
  71.6134990  26.3937540  25.3556870  72.4010080  27.4072860  24.5529000
  75.9446030  29.2277250  22.2080330  76.4611050  28.6164610  21.6828590
  76.5943410  29.7306030  22.6991340  78.6841530  30.1185740  23.0349310
  78.9719340  29.8640040  22.1582320  79.1964750  29.5663100  23.6254880
  79.9018540  13.8575940  23.6145820  79.1190330  14.3321440  23.8942580
  79.6081470  12.9530770  23.5059000  84.4539610  14.5599040  21.6594910
  84.8947700  14.5044140  20.8116510  84.1847200  15.4757050  21.7305090
  86.3178180  14.1914280  19.6703730  86.2566580  13.2475500  19.5234750
  87.0970210  14.2994370  20.2157190  70.6230930  30.3306640  18.6327680
  70.4552970  29.6977320  19.3309570  69.7565440  30.5366040  18.2821870
  71.2458950  14.1623420  16.1359540  72.0038310  14.2752300  15.5623570
  70.7836120  14.9992620  16.0902970  77.7872760  16.2762690  19.1261850
  76.9747270  15.9019580  18.7857730  78.2914400  15.5207770  19.4283040
  82.2897740  12.9405140  20.3644920  82.8927110  13.5125350  20.8393440
  81.5490730  13.5044580  20.1418820  85.4332340  13.3426700  15.6385200
  85.6282970  14.2410150  15.9052630  84.6462210  13.1113780  16.1318150
  72.2293630  29.0239870  16.0777820  71.7041250  29.4047900  15.3739780
  72.1538210  29.6490640  16.7987530  73.6184100  14.6887470  14.6761510
  74.1476860  13.9017270  14.5469460  74.2512420  15.3678660  14.9097040
  75.8121940  14.4262610  17.7306900  75.1824680  13.7249920  17.8977030
  75.2727080  15.1866740  17.5140060  78.7513890  31.0401840  30.4017510
  79.6781200  30.8046110  30.4453470  78.7364320  31.8673840  29.9203540
  86.9858950  30.5827410  17.3991760  87.1611140  29.8965150  16.7552680
  86.2880520  31.1074460  17.0068430  75.9377500  13.7046590  30.1659390
  75.6561770  14.2080190  29.4020210  76.3197200  12.9068340  29.8001520
  74.8286600  30.9722250  14.9527070  75.5605420  30.6881530  14.4050960
  75.0880270  30.7335530  15.8426450  73.9901390  27.0886980  14.9573400
  73.3610270  27.5572080  15.5059230  74.1049220  26.2436200  15.3919590
  82.5392960  13.1200170  30.7439860  82.4258410  13.4394780  31.6391380
  83.3562700  13.5212680  30.4477140  85.3191450  30.2671700  30.2258550
  86.1116770  29.7720930  30.0184510  85.6124600  30.9461840  30.8334160
  79.5769150  22.9171660   2.9883870  78.8011250  22.4372100   3.2782440
  80.2282080  22.2377310   2.8140030  73.5934980  23.2291470   3.8659630
  72.7619860  22.9740180   4.2656140  74.2015960  23.3002240   4.6017550
  83.5976580  27.3231850   1.7683000  83.1358110  26.5519090   2.0970170
  84.4102130  27.3497920   2.2735450  73.5736240  27.2631560   4.0617650
  73.8764280  26.3729300   3.8827870  74.3179830  27.8201780   3.8339900
  69.9659940  20.7899010   3.5341720  70.5376050  20.0221210   3.5345360
  69.9661480  21.0887770   2.6248330  79.0178140  25.5928850   2.9954030
  78.9486420  24.6518790   2.8343160  79.7798000  25.6830260   3.5676600
  71.2084810  16.1983370   5.3210650  71.0287650  15.3009120   5.6013410
  70.8064890  16.7455240   5.9957600  80.0483310  18.3999230   3.2222960
  80.4248130  17.5271110   3.1096630  79.9502820  18.7357930   2.3313400
  71.8271480  18.6943870   3.9292990  72.5081590  18.9582240   4.5480390
  71.5119530  17.8544740   4.2631000  76.0196050  19.7411230   3.0165580
  76.5274270  20.2392200   3.6570600  76.5509290  18.9646430   2.8404940
  88.1206980  17.9116420   6.7194930  87.4159150  18.2998130   6.2010040
  88.3864900  18.6066710   7.3215860  74.3032150  14.3809790   7.2829000
  74.3050590  14.8982180   6.4774900  73.4736460  13.9039970   7.2598930
  75.5535000  24.0204970   5.4602500  75.2204380  24.6473890   6.1023570
  75.7301680  24.5466850   4.6804170  84.0668910  17.8350050   2.9278840
  83.3624480  18.1234940   3.5081950  84.4281070  18.6450160   2.5678400
  74.7654100  25.9885770   7.2751680  75.3828100  26.6636850   6.9936130
  73.9047220  26.3973750   7.1839180  85.6831690  27.4525180   5.1906320
  84.9995210  28.1224290   5.1822990  86.2225980  27.6505830   4.4251180
  87.1355830  17.2804840   3.3188050  86.1880740  17.3143820   3.4503480
  87.4605820  18.0943790   3.7037410  83.2190430  29.2969310   3.9051500
  83.2317590  28.8931600   3.0373760  82.6665650  30.0716600   3.8012930
  82.6175870  24.1999150   5.2334110  83.0344660  23.9859260   4.3987570
  83.3415690  24.4571940   5.8042730  86.5637970  22.5986370   5.3250350
  85.7356600  22.6679460   4.8500480  87.1588450  23.1840680   4.8566180
  83.5279980  19.3855690   6.2705220  83.1151160  20.2109400   6.5245210
  82.7955930  18.8000730   6.0781580  76.1294470  25.8583150   3.2963100
  75.8322760  25.2528620   2.6170880  77.0794290  25.8960460   3.1852460
  74.3741390  18.9458800   4.9122930  74.9255980  19.0554140   4.1376180
  74.8884900  19.3196400   5.6278160  84.2180080  29.4315020   6.9586200
  83.7410640  30.2387210   6.7658810  83.5341870  28.7793350   7.1112410
  75.2212900  25.5964840   9.9470900  74.3241430  25.8204810  10.1944300
  75.2465770  25.7199780   8.9982300  74.0484120  22.4678160   8.5228270
  73.9091890  23.3400960   8.8915670  73.1665480  22.1250970   8.3776210
  75.8464470  28.4099860  10.7313420  75.8179900  28.8142810   9.8641850
  75.6829440  27.4810220  10.5685020  87.7979290  29.1926960  12.0277590
  88.2739010  29.6709850  12.7066670  88.4186450  29.1244450  11.3023090
  70.0002770  24.2375710   4.4399180  70.0783190  24.3724480   3.4954900
  70.6144450  23.5291600   4.6327300  87.2012540  26.3839810   9.1877600
  87.3275600  26.1451690   8.2694780  87.2433920  25.5524350   9.6599680
  81.0629280  30.0867810   7.7572410  81.5773950  29.9975820   8.5594840
  80.2198360  30.4327510   8.0500320  87.0536550  18.4372270  10.1527340
  86.4380820  18.9451940   9.6242800  86.7332970  17.5370600  10.0953280
  70.0562290  25.2789880   6.9793640  70.2193330  24.8095240   6.1613010
  70.5214740  24.7713440   7.6442480  74.8281060  14.4095640   2.0154210
  74.3849210  15.1905180   1.6838730  75.3866050  14.7325530   2.7225150
  79.1150870  17.2764160   7.6189530  78.6530240  17.4847180   8.4309470
  78.7128980  16.4623510   7.3160200  84.1155380  18.4973110   8.7486190
  83.2648970  18.1978860   9.0695260  83.9557170  18.7415120   7.8370010
  81.2105090  19.9974860  10.8484980  81.5358500  19.1638610  10.5087210
  81.9985420  20.5203380  10.9963310  76.8656960  14.9542970   3.8743810
  77.1629290  15.8605800   3.7935830  77.4142520  14.4661750   3.2603380
  77.0594490  20.4314790  10.4095730  76.9638090  19.4909520  10.2596130
  77.9026470  20.6529860  10.0143800  72.1905030  16.8428460   8.5629510
  71.7968420  17.6903670   8.7702290  71.5023430  16.2054830   8.7538150
  78.7650080  16.9263430  11.6326250  78.0748400  16.7335630  12.2672340
  79.5082380  17.2098070  12.1650550  69.4922080  14.7656920   2.5959590
  69.2035130  15.3359780   3.3084570  70.2367840  14.2861370   2.9590820
  81.0413050  20.7661870   4.4680170  80.3094170  21.2748680   4.8170270
  80.6437390  19.9491850   4.1668950  77.4790440  17.4416070   2.8732660
  77.4826500  17.0006020   2.0237200  78.3741560  17.7633400   2.9804480
  73.3292820  17.3242560   1.8326870  72.9892870  17.8017790   2.5893920
  72.5670140  16.8707680   1.4727970  81.5038960  16.2195550   3.8803110
  81.5211700  16.6704200   4.7244960  81.2554540  15.3201190   4.0936550
  84.9309710  13.6327730   9.7189490  85.2555480  12.9017390  10.2447470
  84.9666220  13.3141370   8.8170480  77.7798410  21.5017850   4.6198070
  78.1468540  21.0276420   5.3659410  77.5903470  22.3759420   4.9606410
  75.5697780  20.5426490   6.9382280  75.2654850  21.4218470   7.1632640
  76.5244240  20.6026280   6.9739720  84.8567550  23.7452840   3.3275520
  85.5766670  24.2408130   2.9371630  84.6549370  23.0670730   2.6829390
  80.2386350  23.8161900   9.2144520  80.1723660  22.8957570   8.9602110
  79.6091490  23.9137340   9.9289160  71.6261510  21.3829230   8.0853640
  71.2676450  22.0483080   8.6726980  71.3316070  20.5512780   8.4566260
  74.8274630  21.8413470  10.9693190  74.5274770  21.9870650  10.0721010
  75.5985870  21.2818760  10.8766580  80.1703080  26.6382470   8.9648320
  80.1847620  25.7063430   8.7467230  79.4628180  26.7242230   9.6038090
  86.3814290  23.2789810   8.3116900  85.6562480  23.8718590   8.1146290
  86.9089750  23.2713350   7.5130270  79.6036980  28.2800040   6.0588820
  80.2479200  28.4859420   6.7362240  79.9666420  27.5188440   5.6059670
  80.8769060  26.2832390   4.7766270  81.5191290  25.5825550   4.8898440
  81.4018410  27.0630830   4.5963160  82.6506680  27.0827290   7.9802330
  82.9862920  27.6693980   8.6580250  81.7307020  26.9520000   8.2100120
  70.2010080  14.8722470   8.7625740  69.4868600  15.0719390   9.3678350
  70.6205120  14.0962040   9.1340540  70.4882670  28.8602730   9.7492270
  70.5973790  27.9197470   9.6087660  69.8363230  29.1257480   9.1006000
  78.4795260  27.1318620  11.1490390  78.1592130  26.4127860  11.6936080
  77.8053620  27.8073690  11.2226450  81.6948860  17.3644780   6.5127190
  82.0629680  16.5439990   6.8406760  80.8347060  17.4246670   6.9282840
  78.6550850  20.0184370   6.7365160  79.1536100  20.4930190   7.4017010
  78.7973800  19.0947890   6.9435190  85.8617710  16.2352330   7.5793550
  85.3591310  16.9757730   7.9187360  86.6774370  16.6236330   7.2630340
  86.1565300  28.6494360   2.7009170  86.2812720  29.4725530   3.1732980
  87.0230860  28.4385090   2.3533320  73.6282830  30.7425570   2.3726300
  74.3645310  30.1941030   2.6434870  74.0123750  31.6081580   2.2332290
  72.6341110  29.9271640  11.5611880  73.4353840  30.2483690  11.9747280
  72.1192930  29.5667220  12.2831790  81.4705740  26.0351510  11.5087290
  80.8643900  26.0583110  10.7683040  81.1659850  25.3034550  12.0454540
  82.9006110  29.7631800  10.1196700  83.8527860  29.6789820  10.0696940
  82.7534330  30.4273510  10.7930490  70.3538920  22.4145100  10.5047930
  70.8577940  21.8352380  11.0764160  69.6146340  22.6985330  11.0424300
  77.4076860  23.8216090  10.0383450  76.6422530  24.3901090   9.9538120
  77.5892820  23.5292300   9.1451680  84.5500210  25.5521420  10.5958470
  85.2909680  25.8897180  10.0925930  83.7872890  25.7213480  10.0428240
  72.3862000  20.5574690  11.3998000  72.4267340  20.2588560  12.3083230
  73.2407500  20.9582300  11.2405520  74.3267810  19.1366790   9.3672490
  73.7964270  18.6457740   8.7395830  74.9955880  19.5650990   8.8330420
  83.2245870  23.6036250   9.1313680  83.6386890  23.7581330   9.9804100
  82.2896870  23.7291470   9.2939460  83.6968040  20.9432410  11.1352830
  84.2788810  20.1884730  11.0473310  83.8729810  21.4739850  10.3584310
  74.8140110  16.1029160   9.4469780  74.7196980  15.4849910   8.7220650
  74.2337500  16.8295450   9.2199690  77.5801550  14.6602400   6.4797170
  77.1318850  14.6826660   5.6342720  76.9466750  14.2621420   7.0767470
  77.9861100  23.5556730   7.1009610  78.4049210  24.3989460   6.9285850
  77.0669730  23.6928770   6.8716390  80.3225000  21.2872910   8.4847450
  80.4421210  20.6914050   9.2242290  81.1819000  21.3242600   8.0648750
  82.6612900  21.8410100   7.0609960  82.1348120  22.3652720   6.4575100
  83.0044240  22.4737490   7.6919690  75.8368520  29.8609740   8.2167340
  75.2989610  30.5855800   7.8976040  76.0902480  29.3840080   7.4264680
  77.0893770  17.8294260   9.7423270  77.6793460  17.5210110  10.4301090
  76.2714010  17.3574010   9.8983170  81.9087200  17.4460070   9.9756290
  81.2202720  16.7841610   9.9106280  82.6293220  16.9998340  10.4204750
  78.6930730  31.0960950   8.4753990  78.6189430  31.9996090   8.7826360
  77.7909570  30.7772850   8.4476060  70.0958020  28.4235540   1.7787610
  70.4261030  27.5556600   1.5466250  70.5249020  28.6294060   2.6092570
  70.5848230  29.2906130   4.5169240  70.1479220  29.4706930   5.3493390
  71.1525910  30.0480750   4.3750960  86.2210410  28.7923130   8.8046550
  85.6212400  28.8515690   8.0610470  86.3504310  27.8528110   8.9343400
  84.9062050  25.5175110   6.9022710  84.0921890  25.9472270   7.1648500
  85.3136250  26.1293520   6.2891760  71.4548590  22.1878930   5.4161460
  71.8221630  22.1006330   6.2957480  70.8859410  21.4245480   5.3168320
  86.2552450  20.6563310   8.4291930  86.0238540  20.4276060   7.5289880
  86.5157000  21.5762860   8.3836820  71.0064590  19.0988020   9.3219880
  70.1120640  19.0654780   9.6613590  71.5462140  19.2974810  10.0871130
  84.6940520  15.8819740  11.2071630  85.5710700  15.8903140  11.5905630
  84.7061360  15.1450580  10.5963980  86.1403790  19.7349280   2.0959650
  86.6641270  19.2411930   1.4649820  86.7263210  19.8699640   2.8407220
  86.3193510  19.8189150   5.6179200  85.3696220  19.7852690   5.7324190
  86.5006520  20.7289260   5.3828970  71.5104300  13.3736350   3.6703100
  72.1580490  12.8233730   3.2298260  71.9306140  13.6279500   4.4918910
  85.4056640  13.5677710   7.0272740  86.0428860  14.1811850   7.3931930
  85.5531530  13.6038370   6.0821970  71.2636300  13.5292020   6.4128420
  70.9151120  13.9855840   7.1786600  70.9324000  12.6349150   6.4950850
  72.8700670  26.7011620  10.5781610  72.8270300  26.3304530  11.4596070
  73.0011680  27.6389190  10.7183430  76.5706700  28.2571210   6.1791330
  76.3298060  28.5245770   5.2921850  77.5109340  28.4276940   6.2342190
  78.7761120  14.7203900   9.9347840  78.7150010  15.3125730  10.6843250
  79.7161500  14.6129860   9.7898100  81.4135680  14.3773960   9.5740130
  82.0276090  14.6953250   8.9121210  81.9585240  13.8922550  10.1935990
  87.8310860  30.2765590   6.9801970  87.3369140  30.6734460   6.2629100
  87.2224150  29.6514800   7.3739250  71.9356940  13.0568220   9.6879190
  72.4839930  12.8756270   8.9245300  72.0012250  12.2662330  10.2235500
  72.7088700  29.6473870   7.6979390  72.1149020  29.5158570   8.4369430
  72.7012540  28.8112010   7.2321490  82.1543720  12.9406100   5.9009420
  81.2803560  13.2741210   5.6982350  82.0454470  12.4679280   6.7261290
  83.0615700  15.1476970   7.2851140  82.7329060  14.3328730   6.9052870
  84.0098000  15.1046780   7.1616830  85.5150310  30.9189010   4.2588710
  85.0553280  31.6704820   3.8846730  84.8862770  30.1995480   4.2003510
  72.3400930  27.0132250   6.6487430  71.6134990  26.3937540   6.5813380
  72.4010080  27.4072860   5.7785510  75.9446030  29.2277250   3.4336840
  76.4611050  28.6164610   2.9085100  76.5943410  29.7306030   3.9247850
  78.6841530  30.1185740   4.2605820  78.9719340  29.8640040   3.3838830
  79.1964750  29.5663100   4.8511390  79.9018540  13.8575940   4.8402330
  79.1190330  14.3321440   5.1199090  79.6081470  12.9530770   4.7315510
  84.4539610  14.5599040   2.8851420  84.8947700  14.5044140   2.0373020
  84.1847200  15.4757050   2.9561600  78.7513890  31.0401840  11.6274020
  79.6781200  30.8046110  11.6709980  78.7364320  31.8673840  11.1460050
  75.9377500  13.7046590  11.3915900  75.6561770  14.2080190  10.6276720
  76.3197200  12.9068340  11.0258030  82.5392960  13.1200170  11.9696370
  82.4258410  13.4394780  12.8647890  83.3562700  13.5212680  11.6733650
  85.3191450  30.2671700  11.4515060  86.1116770  29.7720930  11.2441020
  85.6124600  30.9461840  12.0590670  81.4451110   2.3649150  57.4305070
  81.3645160   1.4503760  57.1596780  81.0315530   2.8616220  56.7244780
  79.5769150   4.1428170  59.3114340  78.8011250   3.6628610  59.6012910
  80.2282080   3.4633820  59.1370500  83.5976580   8.5488360  58.0913470
  83.1358110   7.7775600  58.4200640  84.4102130   8.5754430  58.5965920
  69.9659940   2.0155520  59.8572190  70.5376050   1.2477720  59.8575830
  69.9661480   2.3144280  58.9478800  79.8239890  10.8346370  57.7117460
  79.2051330  11.2903870  57.1411900  80.6791670  10.9897830  57.3107160
  79.0178140   6.8185360  59.3184500  78.9486420   5.8775300  59.1573630
  79.7798000   6.9086770  59.8907070  80.6903240   5.7185610  55.1049370
  80.0720510   6.1835060  54.5412090  81.2026490   6.4113090  55.5218880
  70.0586440   6.4042140  52.4789000  69.6814420   6.8929240  51.7473900
  70.3159510   7.0767420  53.1095530  83.2190430  10.5225820  60.2281970
  83.2317590  10.1188110  59.3604230  82.6665650  11.2973110  60.1243400
  84.5135850   7.2442040  55.3172140  84.4032180   6.3016370  55.4421560
  84.5104100   7.6057680  56.2034900  80.0556130   2.8707360  54.6734630
  79.1285410   2.8044740  54.9023100  80.2080950   3.8087490  54.5589870
  84.0853420   4.4327660  55.1769880  83.4665840   4.0947210  54.5296180
  84.0677870   3.7887420  55.8849070  75.6612770   3.3972100  57.4554360
  75.2569770   2.6849350  56.9600260  75.7475890   3.0525340  58.3442400
  76.1294470   7.0839660  59.6193570  75.8322760   6.4785130  58.9401350
  77.0794290   7.1216970  59.5082930  82.2618120   3.6714470  52.1842630
  82.7011400   2.8336900  52.0380450  82.9746540   4.3043870  52.2706770
  80.3713500   8.6110540  56.1523870  80.8109410   9.3534870  55.7379260
  80.3100390   8.8537110  57.0762830  72.3617400   2.2917080  54.9561010
  72.2415000   3.0179170  54.3442280  72.0518290   1.5219990  54.4788920
  71.2450400   7.1632410  57.1735830  70.8378480   7.3047000  56.3189430
  72.1363410   6.8792570  56.9707040  83.0383680  11.5979660  53.5086880
  82.8784820  11.3082600  54.4068710  82.8730390  10.8219790  52.9732110
  75.5172060  11.3778190  55.2858500  75.3414540  10.4613730  55.0726300
  74.6627800  11.7365480  55.5256300  82.7409810   9.1067220  52.0684880
  82.0474970   9.1044510  51.4087160  83.4832670   8.6826540  51.6379050
  82.3059740  10.7329930  56.1433370  82.7616690   9.9519310  56.4571990
  82.6452260  11.4436750  56.6874550  76.5532090   1.9785800  51.5853190
  75.9848990   1.5304050  50.9589100  77.2621090   2.3378580  51.0518340
  74.0979570   5.9743990  53.8579600  73.3241830   5.4341610  53.6978320
  74.8274200   5.4550600  53.5197360  84.8567550   4.9709350  59.6505990
  85.5766670   5.4664640  59.2602100  84.6549370   4.2927240  59.0059860
  74.1416970   5.6424370  57.4958410  74.6595640   4.8392630  57.4415300
  73.6900990   5.5803510  58.3375240  79.0286470   6.9090650  52.7685710
  79.3702170   7.6532880  52.2729030  78.1999180   7.2221770  53.1310540
  85.3040150   2.0478800  51.5577400  85.2203870   2.4793020  50.7073840
  86.0234340   2.5077150  51.9904220  86.3327400   8.9021060  54.2859530
  85.6903560   8.2476680  54.5603250  85.9458060   9.3076150  53.5100200
  81.9113880   6.2306490  58.1331220  82.2637700   5.6334620  57.4732590
  81.0276210   5.9050720  58.3039470  77.9977160   6.9904180  55.5401630
  78.6848290   7.5373390  55.9209220  77.2109580   7.5344910  55.5751240
  70.1369560   2.6077000  51.0318710  71.0064410   2.8901800  51.3154630
  69.6459880   3.4212870  50.9167520  77.3004370   3.9950210  55.1526990
  77.7567150   4.8055460  55.3787180  76.9492580   3.6773350  55.9845480
  84.7224780   7.7937520  50.8235880  84.4962360   7.0767960  51.4160520
  84.3320980   7.5449960  49.9857630  70.5040810  11.8204380  51.5980340
  70.8638450  12.4193720  50.9437610  70.3633150  12.3664270  52.3715370
  84.3041030   5.7109460  52.4850040  84.0162730   6.1722150  53.2727920
  85.0993200   5.2507230  52.7534260  76.5209430   9.2035580  52.4154010
  76.5119530   9.9365270  51.7998520  75.6007790   8.9567160  52.5080970
  72.1216070   4.4250470  53.1600770  71.5144020   5.1649370  53.1696070
  72.5965420   4.5149830  52.3338970  79.5069030   9.2663820  51.0779200
  79.6081010   9.0627810  50.1481180  78.6070770   9.0122100  51.2826980
  78.1487140  11.7850140  55.7726870  78.4028640  11.7471530  54.8506240
  77.1999620  11.6583470  55.7655120  84.1539720   2.7042020  57.3485380
  83.2129860   2.7192250  57.5233070  84.4683790   1.9177980  57.7945680
  74.1321360   4.3861620  50.9089340  74.8984630   4.2742980  51.4714770
  74.2096050   3.6899590  50.2566110  86.1565300   9.8750870  59.0239640
  86.2812720  10.6982040  59.4963450  87.0230860   9.6641600  58.6763790
  73.6282830  11.9682080  58.6956770  74.3645310  11.4197540  58.9665340
  74.0123750  12.8338090  58.5562760  70.5128310   8.0355650  54.5698280
  69.5868090   8.2776790  54.5603690  70.9784740   8.8629910  54.4483030
  76.7385140  11.1412390  50.5182340  77.5313750  11.4301220  50.0664130
  76.2189490  10.7104560  49.8394820  85.7915310  10.3682520  51.9419080
  85.5056820   9.9547660  51.1273260  85.5934860  11.2970230  51.8219600
  77.2562540   6.3615800  50.3824690  77.1513180   5.7468150  51.1086070
  77.0886760   5.8381690  49.5987700  80.4965270   5.4235830  50.9866680
  79.9475370   5.8705130  51.6309420  81.1184530   4.9185080  51.5104350
  76.1640390   4.3826750  52.8831980  76.5856810   4.2166620  53.7263370
  76.2891230   3.5726980  52.3887120  78.6768030   3.4064360  50.1309080
  79.1973690   2.6913380  49.7650230  79.3236430   4.0450230  50.4309590
  79.2416060  11.4875970  52.4210820  80.1366850  11.8260940  52.4429580
  79.2733690  10.7655380  51.7935100  72.8812220   6.8603020  50.6497820
  73.3187090   7.4032690  51.3055400  73.3659950   6.0349970  50.6594160
  70.0958020   9.6492050  58.1018080  70.4261030   8.7813110  57.8696720
  70.5249020   9.8550570  58.9323040  74.6919940   7.9801060  55.7620050
  74.3915480   7.8566030  56.6623960  74.5857430   7.1209650  55.3535780
  87.4611860   7.7597460  50.4646730  86.6304820   7.8274110  50.9353960
  87.6383690   8.6501580  50.1613590  86.9168320   4.5044940  52.9680930
  87.6787230   5.0741590  53.0740620  86.9322690   3.9372140  53.7389240
  70.4172660   3.0282870  57.1988590  69.7621500   2.7594510  56.5548290
  71.2550610   2.9187350  56.7490570  87.9228290   5.3595040  57.8122860
  88.2937120   4.5762360  57.4058830  88.5630220   6.0484140  57.6340160
  86.9687490   4.7979310  50.1253450  87.2436330   5.7058190  49.9972670
  86.7798230   4.7341840  51.0615440  86.8652830   2.7348300  55.1182880
  86.4896430   1.9676230  54.6864170  86.1355950   3.1171000  55.6057810
  84.9638100  11.4950220  56.7521450  85.5597170  11.1734790  56.0755870
  85.2216250  11.0222040  57.5434720  75.9446030  10.4533760  59.7567310
  76.4611050   9.8421120  59.2315570  76.5943410  10.9562540  60.2478320
  70.6230930  11.5563150  56.1814660  70.4552970  10.9233830  56.8796550
  69.7565440  11.7622550  55.8308850  72.2293630  10.2496380  53.6264800
  71.7041250  10.6304410  52.9226760  72.1538210  10.8747150  54.3474510
  86.9858950  11.8083920  54.9478740  87.1611140  11.1221660  54.3039660
  86.2880520  12.3330970  54.5555410  74.8286600  12.1978760  52.5014050
  75.5605420  11.9138040  51.9537940  75.0880270  11.9592040  53.3913430
  73.9901390   8.3143490  52.5060380  73.3610270   8.7828590  53.0546210
  74.1049220   7.4692710  52.9406570  81.4451110   2.3649150  38.6561580
  81.3645160   1.4503760  38.3853290  81.0315530   2.8616220  37.9501290
  79.5769150   4.1428170  40.5370850  78.8011250   3.6628610  40.8269420
  80.2282080   3.4633820  40.3627010  73.5934980   4.4547980  41.4146610
  72.7619860   4.1996690  41.8143120  74.2015960   4.5258750  42.1504530
  83.5976580   8.5488360  39.3169980  83.1358110   7.7775600  39.6457150
  84.4102130   8.5754430  39.8222430  73.5736240   8.4888070  41.6104630
  73.8764280   7.5985810  41.4314850  74.3179830   9.0458290  41.3826880
  69.9659940   2.0155520  41.0828700  70.5376050   1.2477720  41.0832340
  69.9661480   2.3144280  40.1735310  79.8239890  10.8346370  38.9373970
  79.2051330  11.2903870  38.3668410  80.6791670  10.9897830  38.5363670
  79.0178140   6.8185360  40.5441010  78.9486420   5.8775300  40.3830140
  79.7798000   6.9086770  41.1163580  80.6903240   5.7185610  36.3305880
  80.0720510   6.1835060  35.7668600  81.2026490   6.4113090  36.7475390
  75.5535000   5.2461480  43.0089480  75.2204380   5.8730400  43.6510550
  75.7301680   5.7723360  42.2291150  74.7654100   7.2142280  44.8238660
  75.3828100   7.8893360  44.5423110  73.9047220   7.6230260  44.7326160
  70.0586440   6.4042140  33.7045510  69.6814420   6.8929240  32.9730410
  70.3159510   7.0767420  34.3352040  85.6831690   8.6781690  42.7393300
  84.9995210   9.3480800  42.7309970  86.2225980   8.8762340  41.9738160
  83.2190430  10.5225820  41.4538480  83.2317590  10.1188110  40.5860740
  82.6665650  11.2973110  41.3499910  84.5135850   7.2442040  36.5428650
  84.4032180   6.3016370  36.6678070  84.5104100   7.6057680  37.4291410
  82.6175870   5.4255660  42.7821090  83.0344660   5.2115770  41.9474550
  83.3415690   5.6828450  43.3529710  80.0556130   2.8707360  35.8991140
  79.1285410   2.8044740  36.1279610  80.2080950   3.8087490  35.7846380
  86.5637970   3.8242880  42.8737330  85.7356600   3.8935970  42.3987460
  87.1588450   4.4097190  42.4053160  84.0853420   4.4327660  36.4026390
  83.4665840   4.0947210  35.7552690  84.0677870   3.7887420  37.1105580
  75.6612770   3.3972100  38.6810870  75.2569770   2.6849350  38.1856770
  75.7475890   3.0525340  39.5698910  76.1294470   7.0839660  40.8450080
  75.8322760   6.4785130  40.1657860  77.0794290   7.1216970  40.7339440
  84.2180080  10.6571530  44.5073180  83.7410640  11.4643720  44.3145790
  83.5341870  10.0049860  44.6599390  75.2212900   6.8221350  47.4957880
  74.3241430   7.0461320  47.7431280  75.2465770   6.9456290  46.5469280
  82.2618120   3.6714470  33.4099140  82.7011400   2.8336900  33.2636960
  82.9746540   4.3043870  33.4963280  74.0484120   3.6934670  46.0715250
  73.9091890   4.5657470  46.4402650  73.1665480   3.3507480  45.9263190
  80.3713500   8.6110540  37.3780380  80.8109410   9.3534870  36.9635770
  80.3100390   8.8537110  38.3019340  75.8464470   9.6356370  48.2800400
  75.8179900  10.0399320  47.4128830  75.6829440   8.7066730  48.1172000
  72.3617400   2.2917080  36.1817520  72.2415000   3.0179170  35.5698790
  72.0518290   1.5219990  35.7045430  87.7979290  10.4183470  49.5764570
  88.2739010  10.8966360  50.2553650  88.4186450  10.3500960  48.8510070
  70.0002770   5.4632220  41.9886160  70.0783190   5.5980990  41.0441880
  70.6144450   4.7548110  42.1814280  71.2450400   7.1632410  38.3992340
  70.8378480   7.3047000  37.5445940  72.1363410   6.8792570  38.1963550
  87.2012540   7.6096320  46.7364580  87.3275600   7.3708200  45.8181760
  87.2433920   6.7780860  47.2086660  81.0629280  11.3124320  45.3059390
  81.5773950  11.2232330  46.1081820  80.2198360  11.6584020  45.5987300
  83.0383680  11.5979660  34.7343390  82.8784820  11.3082600  35.6325220
  82.8730390  10.8219790  34.1988620  75.5172060  11.3778190  36.5115010
  75.3414540  10.4613730  36.2982810  74.6627800  11.7365480  36.7512810
  82.7409810   9.1067220  33.2941390  82.0474970   9.1044510  32.6343670
  83.4832670   8.6826540  32.8635560  82.3059740  10.7329930  37.3689880
  82.7616690   9.9519310  37.6828500  82.6452260  11.4436750  37.9131060
  70.0562290   6.5046390  44.5280620  70.2193330   6.0351750  43.7099990
  70.5214740   5.9969950  45.1929460  76.5532090   1.9785800  32.8109700
  75.9848990   1.5304050  32.1845610  77.2621090   2.3378580  32.2774850
  71.6301270   5.8797820  46.6876430  71.2456060   5.2391490  47.2859390
  71.9413460   6.5833940  47.2571160  77.7798410   2.7274360  42.1685050
  78.1468540   2.2532930  42.9146390  77.5903470   3.6015930  42.5093390
  75.5697780   1.7683000  44.4869260  75.2654850   2.6474980  44.7119620
  76.5244240   1.8282790  44.5226700  74.0979570   5.9743990  35.0836110
  73.3241830   5.4341610  34.9234830  74.8274200   5.4550600  34.7453870
  84.8567550   4.9709350  40.8762500  85.5766670   5.4664640  40.4858610
  84.6549370   4.2927240  40.2316370  80.2386350   5.0418410  46.7631500
  80.1723660   4.1214080  46.5089090  79.6091490   5.1393850  47.4776140
  74.1416970   5.6424370  38.7214920  74.6595640   4.8392630  38.6671810
  73.6900990   5.5803510  39.5631750  79.0286470   6.9090650  33.9942220
  79.3702170   7.6532880  33.4985540  78.1999180   7.2221770  34.3567050
  71.6261510   2.6085740  45.6340620  71.2676450   3.2739590  46.2213960
  71.3316070   1.7769290  46.0053240  74.8274630   3.0669980  48.5180170
  74.5274770   3.2127160  47.6207990  75.5985870   2.5075270  48.4253560
  80.1703080   7.8638980  46.5135300  80.1847620   6.9319940  46.2954210
  79.4628180   7.9498740  47.1525070  85.3040150   2.0478800  32.7833910
  85.2203870   2.4793020  31.9330350  86.0234340   2.5077150  33.2160730
  86.3814290   4.5046320  45.8603880  85.6562480   5.0975100  45.6633270
  86.9089750   4.4969860  45.0617250  86.3327400   8.9021060  35.5116040
  85.6903560   8.2476680  35.7859760  85.9458060   9.3076150  34.7356710
  81.9113880   6.2306490  39.3587730  82.2637700   5.6334620  38.6989100
  81.0276210   5.9050720  39.5295980  77.9977160   6.9904180  36.7658140
  78.6848290   7.5373390  37.1465730  77.2109580   7.5344910  36.8007750
  70.1369560   2.6077000  32.2575220  71.0064410   2.8901800  32.5411140
  69.6459880   3.4212870  32.1424030  77.3004370   3.9950210  36.3783500
  77.7567150   4.8055460  36.6043690  76.9492580   3.6773350  37.2101990
  79.6036980   9.5056550  43.6075800  80.2479200   9.7115930  44.2849220
  79.9666420   8.7444950  43.1546650  80.8769060   7.5088900  42.3253250
  81.5191290   6.8082060  42.4385420  81.4018410   8.2887340  42.1450140
  84.7224780   7.7937520  32.0492390  84.4962360   7.0767960  32.6417030
  84.3320980   7.5449960  31.2114140  82.6506680   8.3083800  45.5289310
  82.9862920   8.8950490  46.2067230  81.7307020   8.1776510  45.7587100
  70.5040810  11.8204380  32.8236850  70.8638450  12.4193720  32.1694120
  70.3633150  12.3664270  33.5971880  84.3041030   5.7109460  33.7106550
  84.0162730   6.1722150  34.4984430  85.0993200   5.2507230  33.9790770
  70.4882670  10.0859240  47.2979250  70.5973790   9.1453980  47.1574640
  69.8363230  10.3513990  46.6492980  78.4795260   8.3575130  48.6977370
  78.1592130   7.6384370  49.2423060  77.8053620   9.0330200  48.7713430
  76.5209430   9.2035580  33.6410520  76.5119530   9.9365270  33.0255030
  75.6007790   8.9567160  33.7337480  72.1216070   4.4250470  34.3857280
  71.5144020   5.1649370  34.3952580  72.5965420   4.5149830  33.5595480
  79.5069030   9.2663820  32.3035710  79.6081010   9.0627810  31.3737690
  78.6070770   9.0122100  32.5083490  78.1487140  11.7850140  36.9983380
  78.4028640  11.7471530  36.0762750  77.1999620  11.6583470  36.9911630
  84.1539720   2.7042020  38.5741890  83.2129860   2.7192250  38.7489580
  84.4683790   1.9177980  39.0202190  74.1321360   4.3861620  32.1345850
  74.8984630   4.2742980  32.6971280  74.2096050   3.6899590  31.4822620
  86.1565300   9.8750870  40.2496150  86.2812720  10.6982040  40.7219960
  87.0230860   9.6641600  39.9020300  73.6282830  11.9682080  39.9213280
  74.3645310  11.4197540  40.1921850  74.0123750  12.8338090  39.7819270
  70.5128310   8.0355650  35.7954790  69.5868090   8.2776790  35.7860200
  70.9784740   8.8629910  35.6739540  72.6341110  11.1528150  49.1098860
  73.4353840  11.4740200  49.5234260  72.1192930  10.7923730  49.8318770
  76.7385140  11.1412390  31.7438850  77.5313750  11.4301220  31.2920640
  76.2189490  10.7104560  31.0651330  81.4705740   7.2608020  49.0574270
  80.8643900   7.2839620  48.3170020  81.1659850   6.5291060  49.5941520
  82.9006110  10.9888310  47.6683680  83.8527860  10.9046330  47.6183920
  82.7534330  11.6530020  48.3417470  85.7915310  10.3682520  33.1675590
  85.5056820   9.9547660  32.3529770  85.5934860  11.2970230  33.0476110
  70.3538920   3.6401610  48.0534910  70.8577940   3.0608890  48.6251140
  69.6146340   3.9241840  48.5911280  77.2562540   6.3615800  31.6081200
  77.1513180   5.7468150  32.3342580  77.0886760   5.8381690  30.8244210
  77.4076860   5.0472600  47.5870430  76.6422530   5.6157600  47.5025100
  77.5892820   4.7548810  46.6938660  80.4965270   5.4235830  32.2123190
  79.9475370   5.8705130  32.8565930  81.1184530   4.9185080  32.7360860
  84.5500210   6.7777930  48.1445450  85.2909680   7.1153690  47.6412910
  83.7872890   6.9469990  47.5915220  72.3862000   1.7831200  48.9484980
  72.4267340   1.4845070  49.8570210  73.2407500   2.1838810  48.7892500
  76.1640390   4.3826750  34.1088490  76.5856810   4.2166620  34.9519880
  76.2891230   3.5726980  33.6143630  78.6768030   3.4064360  31.3565590
  79.1973690   2.6913380  30.9906740  79.3236430   4.0450230  31.6566100
  83.2245870   4.8292760  46.6800660  83.6386890   4.9837840  47.5291080
  82.2896870   4.9547980  46.8426440  83.6968040   2.1688920  48.6839810
  84.2788810   1.4141240  48.5960290  83.8729810   2.6996360  47.9071290
  77.9861100   4.7813240  44.6496590  78.4049210   5.6245970  44.4772830
  77.0669730   4.9185280  44.4203370  80.3225000   2.5129420  46.0334430
  80.4421210   1.9170560  46.7729270  81.1819000   2.5499110  45.6135730
  82.6612900   3.0666610  44.6096940  82.1348120   3.5909230  44.0062080
  83.0044240   3.6994000  45.2406670  75.8368520  11.0866250  45.7654320
  75.2989610  11.8112310  45.4463020  76.0902480  10.6096590  44.9751660
  78.6930730  12.3217460  46.0240970  78.6189430  13.2252600  46.3313340
  77.7909570  12.0029360  45.9963040  79.2416060  11.4875970  33.6467330
  80.1366850  11.8260940  33.6686090  79.2733690  10.7655380  33.0191610
  72.8812220   6.8603020  31.8754330  73.3187090   7.4032690  32.5311910
  73.3659950   6.0349970  31.8850670  70.0958020   9.6492050  39.3274590
  70.4261030   8.7813110  39.0953230  70.5249020   9.8550570  40.1579550
  74.6919940   7.9801060  36.9876560  74.3915480   7.8566030  37.8880470
  74.5857430   7.1209650  36.5792290  70.5848230  10.5162640  42.0656220
  70.1479220  10.6963440  42.8980370  71.1525910  11.2737260  41.9237940
  86.2210410  10.0179640  46.3533530  85.6212400  10.0772200  45.6097450
  86.3504310   9.0784620  46.4830380  87.4611860   7.7597460  31.6903240
  86.6304820   7.8274110  32.1610470  87.6383690   8.6501580  31.3870100
  86.9168320   4.5044940  34.1937440  87.6787230   5.0741590  34.2997130
  86.9322690   3.9372140  34.9645750  70.4172660   3.0282870  38.4245100
  69.7621500   2.7594510  37.7804800  71.2550610   2.9187350  37.9747080
  87.9228290   5.3595040  39.0379370  88.2937120   4.5762360  38.6315340
  88.5630220   6.0484140  38.8596670  84.9062050   6.7431620  44.4509690
  84.0921890   7.1728780  44.7135480  85.3136250   7.3550030  43.8378740
  86.9687490   4.7979310  31.3509960  87.2436330   5.7058190  31.2229180
  86.7798230   4.7341840  32.2871950  86.8652830   2.7348300  36.3439390
  86.4896430   1.9676230  35.9120680  86.1355950   3.1171000  36.8314320
  71.4548590   3.4135440  42.9648440  71.8221630   3.3262840  43.8444460
  70.8859410   2.6501990  42.8655300  86.2552450   1.8819820  45.9778910
  86.0238540   1.6532570  45.0776860  86.5157000   2.8019370  45.9323800
  84.9638100  11.4950220  37.9777960  85.5597170  11.1734790  37.3012380
  85.2216250  11.0222040  38.7691230  72.8700670   7.9268130  48.1268590
  72.8270300   7.5561040  49.0083050  73.0011680   8.8645700  48.2670410
  76.5706700   9.4827720  43.7278310  76.3298060   9.7502280  42.8408830
  77.5109340   9.6533450  43.7829170  87.8310860  11.5022100  44.5288950
  87.3369140  11.8990970  43.8116080  87.2224150  10.8771310  44.9226230
  85.5150310  12.1445520  41.8075690  85.0553280  12.8961330  41.4333710
  84.8862770  11.4251990  41.7490490  72.3400930   8.2388760  44.1974410
  71.6134990   7.6194050  44.1300360  72.4010080   8.6329370  43.3272490
  75.9446030  10.4533760  40.9823820  76.4611050   9.8421120  40.4572080
  76.5943410  10.9562540  41.4734830  78.6841530  11.3442250  41.8092800
  78.9719340  11.0896550  40.9325810  79.1964750  10.7919610  42.3998370
  70.6230930  11.5563150  37.4071170  70.4552970  10.9233830  38.1053060
  69.7565440  11.7622550  37.0565360  72.2293630  10.2496380  34.8521310
  71.7041250  10.6304410  34.1483270  72.1538210  10.8747150  35.5731020
  78.7513890  12.2658350  49.1761000  79.6781200  12.0302620  49.2196960
  78.7364320  13.0930350  48.6947030  86.9858950  11.8083920  36.1735250
  87.1611140  11.1221660  35.5296170  86.2880520  12.3330970  35.7811920
  74.8286600  12.1978760  33.7270560  75.5605420  11.9138040  33.1794450
  75.0880270  11.9592040  34.6169940  73.9901390   8.3143490  33.7316890
  73.3610270   8.7828590  34.2802720  74.1049220   7.4692710  34.1663080
  85.3191450  11.4928210  49.0002040  86.1116770  10.9977440  48.7928000
  85.6124600  12.1718350  49.6077650  81.4451110   2.3649150  19.8818090
  81.3645160   1.4503760  19.6109800  81.0315530   2.8616220  19.1757800
  79.5769150   4.1428170  21.7627360  78.8011250   3.6628610  22.0525930
  80.2282080   3.4633820  21.5883520  73.5934980   4.4547980  22.6403120
  72.7619860   4.1996690  23.0399630  74.2015960   4.5258750  23.3761040
  83.5976580   8.5488360  20.5426490  83.1358110   7.7775600  20.8713660
  84.4102130   8.5754430  21.0478940  73.5736240   8.4888070  22.8361140
  73.8764280   7.5985810  22.6571360  74.3179830   9.0458290  22.6083390
  69.9659940   2.0155520  22.3085210  70.5376050   1.2477720  22.3088850
  69.9661480   2.3144280  21.3991820  79.8239890  10.8346370  20.1630480
  79.2051330  11.2903870  19.5924920  80.6791670  10.9897830  19.7620180
  79.0178140   6.8185360  21.7697520  78.9486420   5.8775300  21.6086650
  79.7798000   6.9086770  22.3420090  80.6903240   5.7185610  17.5562390
  80.0720510   6.1835060  16.9925110  81.2026490   6.4113090  17.9731900
  75.5535000   5.2461480  24.2345990  75.2204380   5.8730400  24.8767060
  75.7301680   5.7723360  23.4547660  74.7654100   7.2142280  26.0495170
  75.3828100   7.8893360  25.7679620  73.9047220   7.6230260  25.9582670
  70.0586440   6.4042140  14.9302020  69.6814420   6.8929240  14.1986920
  70.3159510   7.0767420  15.5608550  85.6831690   8.6781690  23.9649810
  84.9995210   9.3480800  23.9566480  86.2225980   8.8762340  23.1994670
  83.2190430  10.5225820  22.6794990  83.2317590  10.1188110  21.8117250
  82.6665650  11.2973110  22.5756420  84.5135850   7.2442040  17.7685160
  84.4032180   6.3016370  17.8934580  84.5104100   7.6057680  18.6547920
  82.6175870   5.4255660  24.0077600  83.0344660   5.2115770  23.1731060
  83.3415690   5.6828450  24.5786220  80.0556130   2.8707360  17.1247650
  79.1285410   2.8044740  17.3536120  80.2080950   3.8087490  17.0102890
  86.5637970   3.8242880  24.0993840  85.7356600   3.8935970  23.6243970
  87.1588450   4.4097190  23.6309670  84.0853420   4.4327660  17.6282900
  83.4665840   4.0947210  16.9809200  84.0677870   3.7887420  18.3362090
  75.6612770   3.3972100  19.9067380  75.2569770   2.6849350  19.4113280
  75.7475890   3.0525340  20.7955420  76.1294470   7.0839660  22.0706590
  75.8322760   6.4785130  21.3914370  77.0794290   7.1216970  21.9595950
  84.2180080  10.6571530  25.7329690  83.7410640  11.4643720  25.5402300
  83.5341870  10.0049860  25.8855900  75.2212900   6.8221350  28.7214390
  74.3241430   7.0461320  28.9687790  75.2465770   6.9456290  27.7725790
  82.2618120   3.6714470  14.6355650  82.7011400   2.8336900  14.4893470
  82.9746540   4.3043870  14.7219790  74.0484120   3.6934670  27.2971760
  73.9091890   4.5657470  27.6659160  73.1665480   3.3507480  27.1519700
  80.3713500   8.6110540  18.6036890  80.8109410   9.3534870  18.1892280
  80.3100390   8.8537110  19.5275850  75.8464470   9.6356370  29.5056910
  75.8179900  10.0399320  28.6385340  75.6829440   8.7066730  29.3428510
  72.3617400   2.2917080  17.4074030  72.2415000   3.0179170  16.7955300
  72.0518290   1.5219990  16.9301940  87.7979290  10.4183470  30.8021080
  88.2739010  10.8966360  31.4810160  88.4186450  10.3500960  30.0766580
  70.0002770   5.4632220  23.2142670  70.0783190   5.5980990  22.2698390
  70.6144450   4.7548110  23.4070790  71.2450400   7.1632410  19.6248850
  70.8378480   7.3047000  18.7702450  72.1363410   6.8792570  19.4220060
  87.2012540   7.6096320  27.9621090  87.3275600   7.3708200  27.0438270
  87.2433920   6.7780860  28.4343170  81.0629280  11.3124320  26.5315900
  81.5773950  11.2232330  27.3338330  80.2198360  11.6584020  26.8243810
  83.0383680  11.5979660  15.9599900  82.8784820  11.3082600  16.8581730
  82.8730390  10.8219790  15.4245130  75.5172060  11.3778190  17.7371520
  75.3414540  10.4613730  17.5239320  74.6627800  11.7365480  17.9769320
  82.7409810   9.1067220  14.5197900  82.0474970   9.1044510  13.8600180
  83.4832670   8.6826540  14.0892070  82.3059740  10.7329930  18.5946390
  82.7616690   9.9519310  18.9085010  82.6452260  11.4436750  19.1387570
  70.0562290   6.5046390  25.7537130  70.2193330   6.0351750  24.9356500
  70.5214740   5.9969950  26.4185970  76.5532090   1.9785800  14.0366210
  75.9848990   1.5304050  13.4102120  77.2621090   2.3378580  13.5031360
  71.6301270   5.8797820  27.9132940  71.2456060   5.2391490  28.5115900
  71.9413460   6.5833940  28.4827670  77.7798410   2.7274360  23.3941560
  78.1468540   2.2532930  24.1402900  77.5903470   3.6015930  23.7349900
  75.5697780   1.7683000  25.7125770  75.2654850   2.6474980  25.9376130
  76.5244240   1.8282790  25.7483210  74.0979570   5.9743990  16.3092620
  73.3241830   5.4341610  16.1491340  74.8274200   5.4550600  15.9710380
  84.8567550   4.9709350  22.1019010  85.5766670   5.4664640  21.7115120
  84.6549370   4.2927240  21.4572880  80.2386350   5.0418410  27.9888010
  80.1723660   4.1214080  27.7345600  79.6091490   5.1393850  28.7032650
  74.1416970   5.6424370  19.9471430  74.6595640   4.8392630  19.8928320
  73.6900990   5.5803510  20.7888260  79.0286470   6.9090650  15.2198730
  79.3702170   7.6532880  14.7242050  78.1999180   7.2221770  15.5823560
  71.6261510   2.6085740  26.8597130  71.2676450   3.2739590  27.4470470
  71.3316070   1.7769290  27.2309750  74.8274630   3.0669980  29.7436680
  74.5274770   3.2127160  28.8464500  75.5985870   2.5075270  29.6510070
  80.1703080   7.8638980  27.7391810  80.1847620   6.9319940  27.5210720
  79.4628180   7.9498740  28.3781580  85.3040150   2.0478800  14.0090420
  85.2203870   2.4793020  13.1586860  86.0234340   2.5077150  14.4417240
  86.3814290   4.5046320  27.0860390  85.6562480   5.0975100  26.8889780
  86.9089750   4.4969860  26.2873760  86.3327400   8.9021060  16.7372550
  85.6903560   8.2476680  17.0116270  85.9458060   9.3076150  15.9613220
  81.9113880   6.2306490  20.5844240  82.2637700   5.6334620  19.9245610
  81.0276210   5.9050720  20.7552490  77.9977160   6.9904180  17.9914650
  78.6848290   7.5373390  18.3722240  77.2109580   7.5344910  18.0264260
  70.1369560   2.6077000  13.4831730  71.0064410   2.8901800  13.7667650
  69.6459880   3.4212870  13.3680540  77.3004370   3.9950210  17.6040010
  77.7567150   4.8055460  17.8300200  76.9492580   3.6773350  18.4358500
  79.6036980   9.5056550  24.8332310  80.2479200   9.7115930  25.5105730
  79.9666420   8.7444950  24.3803160  80.8769060   7.5088900  23.5509760
  81.5191290   6.8082060  23.6641930  81.4018410   8.2887340  23.3706650
  84.7224780   7.7937520  13.2748900  84.4962360   7.0767960  13.8673540
  84.3320980   7.5449960  12.4370650  82.6506680   8.3083800  26.7545820
  82.9862920   8.8950490  27.4323740  81.7307020   8.1776510  26.9843610
  70.5040810  11.8204380  14.0493360  70.8638450  12.4193720  13.3950630
  70.3633150  12.3664270  14.8228390  84.3041030   5.7109460  14.9363060
  84.0162730   6.1722150  15.7240940  85.0993200   5.2507230  15.2047280
  70.4882670  10.0859240  28.5235760  70.5973790   9.1453980  28.3831150
  69.8363230  10.3513990  27.8749490  78.4795260   8.3575130  29.9233880
  78.1592130   7.6384370  30.4679570  77.8053620   9.0330200  29.9969940
  76.5209430   9.2035580  14.8667030  76.5119530   9.9365270  14.2511540
  75.6007790   8.9567160  14.9593990  72.1216070   4.4250470  15.6113790
  71.5144020   5.1649370  15.6209090  72.5965420   4.5149830  14.7851990
  79.5069030   9.2663820  13.5292220  79.6081010   9.0627810  12.5994200
  78.6070770   9.0122100  13.7340000  78.1487140  11.7850140  18.2239890
  78.4028640  11.7471530  17.3019260  77.1999620  11.6583470  18.2168140
  84.1539720   2.7042020  19.7998400  83.2129860   2.7192250  19.9746090
  84.4683790   1.9177980  20.2458700  74.1321360   4.3861620  13.3602360
  74.8984630   4.2742980  13.9227790  74.2096050   3.6899590  12.7079130
  86.1565300   9.8750870  21.4752660  86.2812720  10.6982040  21.9476470
  87.0230860   9.6641600  21.1276810  73.6282830  11.9682080  21.1469790
  74.3645310  11.4197540  21.4178360  74.0123750  12.8338090  21.0075780
  70.5128310   8.0355650  17.0211300  69.5868090   8.2776790  17.0116710
  70.9784740   8.8629910  16.8996050  72.6341110  11.1528150  30.3355370
  73.4353840  11.4740200  30.7490770  72.1192930  10.7923730  31.0575280
  76.7385140  11.1412390  12.9695360  77.5313750  11.4301220  12.5177150
  76.2189490  10.7104560  12.2907840  81.4705740   7.2608020  30.2830780
  80.8643900   7.2839620  29.5426530  81.1659850   6.5291060  30.8198030
  82.9006110  10.9888310  28.8940190  83.8527860  10.9046330  28.8440430
  82.7534330  11.6530020  29.5673980  85.7915310  10.3682520  14.3932100
  85.5056820   9.9547660  13.5786280  85.5934860  11.2970230  14.2732620
  70.3538920   3.6401610  29.2791420  70.8577940   3.0608890  29.8507650
  69.6146340   3.9241840  29.8167790  77.2562540   6.3615800  12.8337710
  77.1513180   5.7468150  13.5599090  77.0886760   5.8381690  12.0500720
  77.4076860   5.0472600  28.8126940  76.6422530   5.6157600  28.7281610
  77.5892820   4.7548810  27.9195170  80.4965270   5.4235830  13.4379700
  79.9475370   5.8705130  14.0822440  81.1184530   4.9185080  13.9617370
  84.5500210   6.7777930  29.3701960  85.2909680   7.1153690  28.8669420
  83.7872890   6.9469990  28.8171730  72.3862000   1.7831200  30.1741490
  72.4267340   1.4845070  31.0826720  73.2407500   2.1838810  30.0149010
  76.1640390   4.3826750  15.3345000  76.5856810   4.2166620  16.1776390
  76.2891230   3.5726980  14.8400140  78.6768030   3.4064360  12.5822100
  79.1973690   2.6913380  12.2163250  79.3236430   4.0450230  12.8822610
  83.2245870   4.8292760  27.9057170  83.6386890   4.9837840  28.7547590
  82.2896870   4.9547980  28.0682950  83.6968040   2.1688920  29.9096320
  84.2788810   1.4141240  29.8216800  83.8729810   2.6996360  29.1327800
  77.9861100   4.7813240  25.8753100  78.4049210   5.6245970  25.7029340
  77.0669730   4.9185280  25.6459880  80.3225000   2.5129420  27.2590940
  80.4421210   1.9170560  27.9985780  81.1819000   2.5499110  26.8392240
  82.6612900   3.0666610  25.8353450  82.1348120   3.5909230  25.2318590
  83.0044240   3.6994000  26.4663180  75.8368520  11.0866250  26.9910830
  75.2989610  11.8112310  26.6719530  76.0902480  10.6096590  26.2008170
  78.6930730  12.3217460  27.2497480  78.6189430  13.2252600  27.5569850
  77.7909570  12.0029360  27.2219550  79.2416060  11.4875970  14.8723840
  80.1366850  11.8260940  14.8942600  79.2733690  10.7655380  14.2448120
  72.8812220   6.8603020  13.1010840  73.3187090   7.4032690  13.7568420
  73.3659950   6.0349970  13.1107180  70.0958020   9.6492050  20.5531100
  70.4261030   8.7813110  20.3209740  70.5249020   9.8550570  21.3836060
  74.6919940   7.9801060  18.2133070  74.3915480   7.8566030  19.1136980
  74.5857430   7.1209650  17.8048800  70.5848230  10.5162640  23.2912730
  70.1479220  10.6963440  24.1236880  71.1525910  11.2737260  23.1494450
  86.2210410  10.0179640  27.5790040  85.6212400  10.0772200  26.8353960
  86.3504310   9.0784620  27.7086890  87.4611860   7.7597460  12.9159750
  86.6304820   7.8274110  13.3866980  87.6383690   8.6501580  12.6126610
  86.9168320   4.5044940  15.4193950  87.6787230   5.0741590  15.5253640
  86.9322690   3.9372140  16.1902260  70.4172660   3.0282870  19.6501610
  69.7621500   2.7594510  19.0061310  71.2550610   2.9187350  19.2003590
  87.9228290   5.3595040  20.2635880  88.2937120   4.5762360  19.8571850
  88.5630220   6.0484140  20.0853180  84.9062050   6.7431620  25.6766200
  84.0921890   7.1728780  25.9391990  85.3136250   7.3550030  25.0635250
  86.9687490   4.7979310  12.5766470  87.2436330   5.7058190  12.4485690
  86.7798230   4.7341840  13.5128460  86.8652830   2.7348300  17.5695900
  86.4896430   1.9676230  17.1377190  86.1355950   3.1171000  18.0570830
  71.4548590   3.4135440  24.1904950  71.8221630   3.3262840  25.0700970
  70.8859410   2.6501990  24.0911810  86.2552450   1.8819820  27.2035420
  86.0238540   1.6532570  26.3033370  86.5157000   2.8019370  27.1580310
  84.9638100  11.4950220  19.2034470  85.5597170  11.1734790  18.5268890
  85.2216250  11.0222040  19.9947740  72.8700670   7.9268130  29.3525100
  72.8270300   7.5561040  30.2339560  73.0011680   8.8645700  29.4926920
  76.5706700   9.4827720  24.9534820  76.3298060   9.7502280  24.0665340
  77.5109340   9.6533450  25.0085680  87.8310860  11.5022100  25.7545460
  87.3369140  11.8990970  25.0372590  87.2224150  10.8771310  26.1482740
  72.7088700  10.8730380  26.4722880  72.1149020  10.7415080  27.2112920
  72.7012540  10.0368520  26.0064980  85.5150310  12.1445520  23.0332200
  85.0553280  12.8961330  22.6590220  84.8862770  11.4251990  22.9747000
  72.3400930   8.2388760  25.4230920  71.6134990   7.6194050  25.3556870
  72.4010080   8.6329370  24.5529000  75.9446030  10.4533760  22.2080330
  76.4611050   9.8421120  21.6828590  76.5943410  10.9562540  22.6991340
  78.6841530  11.3442250  23.0349310  78.9719340  11.0896550  22.1582320
  79.1964750  10.7919610  23.6254880  70.6230930  11.5563150  18.6327680
  70.4552970  10.9233830  19.3309570  69.7565440  11.7622550  18.2821870
  72.2293630  10.2496380  16.0777820  71.7041250  10.6304410  15.3739780
  72.1538210  10.8747150  16.7987530  78.7513890  12.2658350  30.4017510
  79.6781200  12.0302620  30.4453470  78.7364320  13.0930350  29.9203540
  86.9858950  11.8083920  17.3991760  87.1611140  11.1221660  16.7552680
  86.2880520  12.3330970  17.0068430  74.8286600  12.1978760  14.9527070
  75.5605420  11.9138040  14.4050960  75.0880270  11.9592040  15.8426450
  73.9901390   8.3143490  14.9573400  73.3610270   8.7828590  15.5059230
  74.1049220   7.4692710  15.3919590  85.3191450  11.4928210  30.2258550
  86.1116770  10.9977440  30.0184510  85.6124600  12.1718350  30.8334160
  79.5769150   4.1428170   2.9883870  78.8011250   3.6628610   3.2782440
  80.2282080   3.4633820   2.8140030  73.5934980   4.4547980   3.8659630
  72.7619860   4.1996690   4.2656140  74.2015960   4.5258750   4.6017550
  83.5976580   8.5488360   1.7683000  83.1358110   7.7775600   2.0970170
  84.4102130   8.5754430   2.2735450  73.5736240   8.4888070   4.0617650
  73.8764280   7.5985810   3.8827870  74.3179830   9.0458290   3.8339900
  69.9659940   2.0155520   3.5341720  70.5376050   1.2477720   3.5345360
  69.9661480   2.3144280   2.6248330  79.0178140   6.8185360   2.9954030
  78.9486420   5.8775300   2.8343160  79.7798000   6.9086770   3.5676600
  75.5535000   5.2461480   5.4602500  75.2204380   5.8730400   6.1023570
  75.7301680   5.7723360   4.6804170  74.7654100   7.2142280   7.2751680
  75.3828100   7.8893360   6.9936130  73.9047220   7.6230260   7.1839180
  85.6831690   8.6781690   5.1906320  84.9995210   9.3480800   5.1822990
  86.2225980   8.8762340   4.4251180  83.2190430  10.5225820   3.9051500
  83.2317590  10.1188110   3.0373760  82.6665650  11.2973110   3.8012930
  82.6175870   5.4255660   5.2334110  83.0344660   5.2115770   4.3987570
  83.3415690   5.6828450   5.8042730  86.5637970   3.8242880   5.3250350
  85.7356600   3.8935970   4.8500480  87.1588450   4.4097190   4.8566180
  76.1294470   7.0839660   3.2963100  75.8322760   6.4785130   2.6170880
  77.0794290   7.1216970   3.1852460  84.2180080  10.6571530   6.9586200
  83.7410640  11.4643720   6.7658810  83.5341870  10.0049860   7.1112410
  75.2212900   6.8221350   9.9470900  74.3241430   7.0461320  10.1944300
  75.2465770   6.9456290   8.9982300  74.0484120   3.6934670   8.5228270
  73.9091890   4.5657470   8.8915670  73.1665480   3.3507480   8.3776210
  75.8464470   9.6356370  10.7313420  75.8179900  10.0399320   9.8641850
  75.6829440   8.7066730  10.5685020  87.7979290  10.4183470  12.0277590
  88.2739010  10.8966360  12.7066670  88.4186450  10.3500960  11.3023090
  70.0002770   5.4632220   4.4399180  70.0783190   5.5980990   3.4954900
  70.6144450   4.7548110   4.6327300  87.2012540   7.6096320   9.1877600
  87.3275600   7.3708200   8.2694780  87.2433920   6.7780860   9.6599680
  81.0629280  11.3124320   7.7572410  81.5773950  11.2232330   8.5594840
  80.2198360  11.6584020   8.0500320  70.0562290   6.5046390   6.9793640
  70.2193330   6.0351750   6.1613010  70.5214740   5.9969950   7.6442480
  71.6301270   5.8797820   9.1389450  71.2456060   5.2391490   9.7372410
  71.9413460   6.5833940   9.7084180  77.7798410   2.7274360   4.6198070
  78.1468540   2.2532930   5.3659410  77.5903470   3.6015930   4.9606410
  75.5697780   1.7683000   6.9382280  75.2654850   2.6474980   7.1632640
  76.5244240   1.8282790   6.9739720  84.8567550   4.9709350   3.3275520
  85.5766670   5.4664640   2.9371630  84.6549370   4.2927240   2.6829390
  80.2386350   5.0418410   9.2144520  80.1723660   4.1214080   8.9602110
  79.6091490   5.1393850   9.9289160  71.6261510   2.6085740   8.0853640
  71.2676450   3.2739590   8.6726980  71.3316070   1.7769290   8.4566260
  74.8274630   3.0669980  10.9693190  74.5274770   3.2127160  10.0721010
  75.5985870   2.5075270  10.8766580  80.1703080   7.8638980   8.9648320
  80.1847620   6.9319940   8.7467230  79.4628180   7.9498740   9.6038090
  86.3814290   4.5046320   8.3116900  85.6562480   5.0975100   8.1146290
  86.9089750   4.4969860   7.5130270  79.6036980   9.5056550   6.0588820
  80.2479200   9.7115930   6.7362240  79.9666420   8.7444950   5.6059670
  80.8769060   7.5088900   4.7766270  81.5191290   6.8082060   4.8898440
  81.4018410   8.2887340   4.5963160  82.6506680   8.3083800   7.9802330
  82.9862920   8.8950490   8.6580250  81.7307020   8.1776510   8.2100120
  70.4882670  10.0859240   9.7492270  70.5973790   9.1453980   9.6087660
  69.8363230  10.3513990   9.1006000  78.4795260   8.3575130  11.1490390
  78.1592130   7.6384370  11.6936080  77.8053620   9.0330200  11.2226450
  86.1565300   9.8750870   2.7009170  86.2812720  10.6982040   3.1732980
  87.0230860   9.6641600   2.3533320  73.6282830  11.9682080   2.3726300
  74.3645310  11.4197540   2.6434870  74.0123750  12.8338090   2.2332290
  72.6341110  11.1528150  11.5611880  73.4353840  11.4740200  11.9747280
  72.1192930  10.7923730  12.2831790  81.4705740   7.2608020  11.5087290
  80.8643900   7.2839620  10.7683040  81.1659850   6.5291060  12.0454540
  82.9006110  10.9888310  10.1196700  83.8527860  10.9046330  10.0696940
  82.7534330  11.6530020  10.7930490  70.3538920   3.6401610  10.5047930
  70.8577940   3.0608890  11.0764160  69.6146340   3.9241840  11.0424300
  77.4076860   5.0472600  10.0383450  76.6422530   5.6157600   9.9538120
  77.5892820   4.7548810   9.1451680  84.5500210   6.7777930  10.5958470
  85.2909680   7.1153690  10.0925930  83.7872890   6.9469990  10.0428240
  72.3862000   1.7831200  11.3998000  72.4267340   1.4845070  12.3083230
  73.2407500   2.1838810  11.2405520  83.2245870   4.8292760   9.1313680
  83.6386890   4.9837840   9.9804100  82.2896870   4.9547980   9.2939460
  83.6968040   2.1688920  11.1352830  84.2788810   1.4141240  11.0473310
  83.8729810   2.6996360  10.3584310  77.9861100   4.7813240   7.1009610
  78.4049210   5.6245970   6.9285850  77.0669730   4.9185280   6.8716390
  80.3225000   2.5129420   8.4847450  80.4421210   1.9170560   9.2242290
  81.1819000   2.5499110   8.0648750  82.6612900   3.0666610   7.0609960
  82.1348120   3.5909230   6.4575100  83.0044240   3.6994000   7.6919690
  75.8368520  11.0866250   8.2167340  75.2989610  11.8112310   7.8976040
  76.0902480  10.6096590   7.4264680  78.6930730  12.3217460   8.4753990
  78.6189430  13.2252600   8.7826360  77.7909570  12.0029360   8.4476060
  70.0958020   9.6492050   1.7787610  70.4261030   8.7813110   1.5466250
  70.5249020   9.8550570   2.6092570  70.5848230  10.5162640   4.5169240
  70.1479220  10.6963440   5.3493390  71.1525910  11.2737260   4.3750960
  86.2210410  10.0179640   8.8046550  85.6212400  10.0772200   8.0610470
  86.3504310   9.0784620   8.9343400  84.9062050   6.7431620   6.9022710
  84.0921890   7.1728780   7.1648500  85.3136250   7.3550030   6.2891760
  71.4548590   3.4135440   5.4161460  71.8221630   3.3262840   6.2957480
  70.8859410   2.6501990   5.3168320  86.2552450   1.8819820   8.4291930
  86.0238540   1.6532570   7.5289880  86.5157000   2.8019370   8.3836820
  72.8700670   7.9268130  10.5781610  72.8270300   7.5561040  11.4596070
  73.0011680   8.8645700  10.7183430  76.5706700   9.4827720   6.1791330
  76.3298060   9.7502280   5.2921850  77.5109340   9.6533450   6.2342190
  87.8310860  11.5022100   6.9801970  87.3369140  11.8990970   6.2629100
  87.2224150  10.8771310   7.3739250  72.7088700  10.8730380   7.6979390
  72.1149020  10.7415080   8.4369430  72.7012540  10.0368520   7.2321490
  85.5150310  12.1445520   4.2588710  85.0553280  12.8961330   3.8846730
  84.8862770  11.4251990   4.2003510  72.3400930   8.2388760   6.6487430
  71.6134990   7.6194050   6.5813380  72.4010080   8.6329370   5.7785510
  75.9446030  10.4533760   3.4336840  76.4611050   9.8421120   2.9085100
  76.5943410  10.9562540   3.9247850  78.6841530  11.3442250   4.2605820
  78.9719340  11.0896550   3.3838830  79.1964750  10.7919610   4.8511390
  78.7513890  12.2658350  11.6274020  79.6781200  12.0302620  11.6709980
  78.7364320  13.0930350  11.1460050  85.3191450  11.4928210  11.4515060
  86.1116770  10.9977440  11.2441020  85.6124600  12.1718350  12.0590670
  62.6707620  96.2366600  57.4305070  62.5901670  95.3221210  57.1596780
  62.2572040  96.7333670  56.7244780  60.8025660  98.0145620  59.3114340
  60.0267760  97.5346060  59.6012910  61.4538590  97.3351270  59.1370500
  53.2283440  93.2867320  53.9732490  52.3400140  93.6283290  53.8712370
  53.5124630  93.0867640  53.0813320  51.1916450  95.8872970  59.8572190
  51.7632560  95.1195170  59.8575830  51.1917990  96.1861730  58.9478800
  61.2739820  93.4973190  59.5453430  61.6504640  92.6245070  59.4327100
  61.1759330  93.8331890  58.6543870  55.4044830  91.8698820  55.0070870
  55.5111580  92.7702550  55.3139630  54.4937190  91.8216790  54.7165520
  65.0563940  90.9923630  56.4781770  65.8773560  90.5020200  56.5207250
  65.0898020  91.5821290  57.2313610  57.2452560  94.8385190  59.3396050
  57.7530780  95.3366160  59.9801070  57.7765800  94.0620390  59.1635410
  65.2925420  92.9324010  59.2509310  64.5880990  93.2208900  59.8312420
  65.6537580  93.7424120  58.8908870  68.3612340  92.3778800  59.6418520
  67.4137250  92.4117780  59.7733950  68.6862330  93.1917750  60.0267880
  58.8931880  88.6775980  57.9374510  59.2006860  88.1222870  57.2210010
  57.9632580  88.8120440  57.7547500  61.2812640  96.7424810  54.6734630
  60.3541920  96.6762190  54.9023100  61.4337460  97.6804940  54.5589870
  61.2681720  93.0141810  51.6701790  60.3285390  93.1755770  51.7554250
  61.5864980  93.7327490  51.1237780  65.3109930  98.3045110  55.1769880
  64.6922350  97.9664660  54.5296180  65.2934380  97.6604870  55.8849070
  56.8869280  97.2689550  57.4554360  56.4826280  96.5566800  56.9600260
  56.9732400  96.9242790  58.3442400  63.4874630  97.5431920  52.1842630
  63.9267910  96.7054350  52.0380450  64.2003050  98.1761320  52.2706770
  67.0691770  88.7974730  50.4983670  66.7564430  88.8901560  51.3982740
  67.8304240  89.3755760  50.4481100  53.5873910  96.1634530  54.9561010
  53.4671510  96.8896620  54.3442280  53.2774800  95.3937440  54.4788920
  56.0537570  89.5069600  58.3384680  55.6105720  90.2879140  58.0069200
  56.6122560  89.8299490  59.0455620  59.1696390  89.1280300  53.2190510
  58.5450570  89.1240170  53.9443820  59.0826510  88.2611260  52.8226480
  58.0913470  90.0516930  60.1974280  58.3885800  90.9579760  60.1166300
  58.6399030  89.5635710  59.5833850  55.8451790  94.6303170  56.0665930
  55.6192710  94.4140340  56.9712550  55.0644320  95.0631630  55.7211900
  63.0749550  94.6366540  54.6656580  62.4758440  95.3602340  54.4820200
  63.6229160  94.5743320  53.8833030  61.6814420  93.2730080  56.6959860
  62.0743990  93.5902280  55.8828550  62.0431270  92.3941960  56.8104380
  50.7178590  89.8630880  58.9190060  50.4291640  90.4333740  59.6315040
  51.4624350  89.3835330  59.2821290  50.9048820  93.8051000  50.1292780
  50.8223490  94.7481760  50.2707770  50.5531880  93.6625910  49.2505130
  58.7046950  92.5390030  59.1963130  58.7083010  92.0979980  58.3467670
  59.5998070  92.8607360  59.3034950  54.5549330  92.4216520  58.1557340
  54.2149380  92.8991750  58.9124390  53.7926650  91.9681640  57.7958440
  58.7667100  93.5402110  52.1869890  58.8879920  93.4988590  53.1355710
  58.3815610  94.4026260  52.0316620  57.7788600  95.8503250  51.5853190
  57.2105500  95.4021500  50.9589100  58.4877600  96.2096030  51.0518340
  51.8695410  91.3435500  57.0722010  51.5842330  90.9791170  57.9100630
  51.8074270  90.6115960  56.4585150  61.5434000  90.2364760  53.7935380
  60.7298610  89.7377930  53.7180690  61.3495950  91.0763010  53.3771730
  64.2582390  94.6084410  52.0897540  65.1462010  94.9201640  51.9148880
  64.2287480  93.7356660  51.6978120  66.5296660  95.9196250  51.5577400
  66.4460380  96.3510470  50.7073840  67.2490850  96.3794600  51.9904220
  51.3626070  96.4794450  51.0318710  52.2320920  96.7619250  51.3154630
  50.8716390  97.2930320  50.9167520  58.5260880  97.8667660  55.1526990
  58.9823660  98.6772910  55.3787180  58.1749090  97.5490800  55.9845480
  54.4272660  88.2105310  55.6249510  54.2987290  88.2023210  56.5734430
  53.6034680  88.5488400  55.2740520  66.2867400  91.4175680  53.6445220
  65.6580560  91.5221350  52.9303450  65.7919320  91.6372460  54.4339100
  58.2551430  93.6961630  55.0603100  57.5467580  94.1647970  55.5016710
  58.5395910  93.0383640  55.6948290  62.2866860  90.4212290  56.4998890
  62.1634640  90.4398420  55.5508400  63.2351420  90.4691230  56.6197290
  56.4586450  92.0046710  52.4353810  57.3076980  92.4416860  52.3694000
  56.0917720  92.3166970  53.2625870  65.3796230  96.5759470  57.3485380
  64.4386370  96.5909700  57.5233070  65.6940300  95.7895430  57.7945680
  55.3577870  98.2579070  50.9089340  56.1241140  98.1460430  51.4714770
  55.4352560  97.5617040  50.2566110  54.0524630  95.6904140  51.5922230
  54.1328220  94.7431650  51.7039630  54.9444380  96.0211020  51.6982890
  57.3896900  98.2544200  52.8831980  57.8113320  98.0884070  53.7263370
  57.5147740  97.4444430  52.3887120  59.9024540  97.2781810  50.1309080
  60.4230200  96.5630830  49.7650230  60.5492940  97.9167680  50.4309590
  56.2855800  94.3277430  49.8290140  56.0844860  93.4644790  50.1903480
  56.1147850  94.2410790  48.8911740  63.7644110  89.1385660  52.3577020
  64.0446400  88.2953560  52.7136440  62.9909840  89.3708770  52.8715770
  55.0838600  91.4278050  49.8168020  55.3864500  91.4345480  48.9087170
  55.8233190  91.0775910  50.3135680  58.3023530  90.3712670  50.8024220
  57.9545530  89.6936660  50.2226670  58.5036300  89.9102180  51.6167610
  68.1424830  98.3762390  52.9680930  68.9043740  98.9459040  53.0740620
  68.1579200  97.8089590  53.7389240  51.6429170  96.9000320  57.1988590
  50.9878010  96.6311960  56.5548290  52.4807120  96.7904800  56.7490570
  64.5919610  91.6941610  51.4207080  65.0104490  91.5072590  50.5803740
  64.2855670  90.8420660  51.7310010  68.0909340  96.6065750  55.1182880
  67.7152940  95.8393680  54.6864170  67.3612460  96.9888450  55.6057810
  50.8567250  94.1099250  53.1413920  49.9531330  94.3729450  52.9665580
  51.3407870  94.3810420  52.3613880  67.3660300  94.8323240  58.4190120
  67.8897780  94.3385890  57.7880290  67.9519720  94.9673600  59.1637690
  53.3994460  93.1664790  51.0508300  54.1086160  92.7448010  50.5655580
  52.6834400  93.2340020  50.4191650  53.0468620  89.2204120  50.0910950
  53.7696750  89.7613060  50.4092170  53.3193140  88.9467540  49.2152490
  66.8560270  94.0896590  54.3582530  67.3519390  93.8567460  55.1431410
  66.6576340  93.2508430  53.9420170  68.2847430  92.7257540  56.8920210
  68.1746710  92.5713580  57.8302480  69.0455020  92.1978480  56.6495620
  69.1737700  90.5565460  50.1326350  70.0987010  90.4246640  49.9244640
  69.1513490  90.6358280  51.0862800  69.2476190  91.3276120  52.7583060
  68.4527690  91.2621240  53.2875970  69.4519470  92.2626760  52.7468410
  67.5434690  89.2888240  57.2190710  67.4823090  88.3449460  57.0721730
  68.3226720  89.3968330  57.7644170  52.4715460  89.2597380  53.6846520
  53.2294820  89.3726260  53.1110550  52.0092630  90.0966580  53.6389950
  59.0129270  91.3736650  56.6748830  58.2003780  90.9993540  56.3344710
  59.5170910  90.6181730  56.9770020  63.5154250  88.0379100  57.9131900
  64.1183620  88.6099310  58.3880420  62.7747240  88.6018540  57.6905800
  66.6588850  88.4400660  53.1872180  66.8539480  89.3384110  53.4539610
  65.8718720  88.2087740  53.6805130  54.8440610  89.7861430  52.2248490
  55.3733370  88.9991230  52.0956440  55.4768930  90.4652620  52.4584020
  57.0378450  89.5236570  55.2793880  56.4081190  88.8223880  55.4464010
  56.4983590  90.2840700  55.0627040  62.6707620  96.2366600  38.6561580
  62.5901670  95.3221210  38.3853290  62.2572040  96.7333670  37.9501290
  60.8025660  98.0145620  40.5370850  60.0267760  97.5346060  40.8269420
  61.4538590  97.3351270  40.3627010  54.8191490  98.3265430  41.4146610
  53.9876370  98.0714140  41.8143120  55.4272470  98.3976200  42.1504530
  53.2283440  93.2867320  35.1989000  52.3400140  93.6283290  35.0968880
  53.5124630  93.0867640  34.3069830  51.1916450  95.8872970  41.0828700
  51.7632560  95.1195170  41.0832340  51.1917990  96.1861730  40.1735310
  52.4341320  91.2957330  42.8697630  52.2544160  90.3983080  43.1500390
  52.0321400  91.8429200  43.5444580  61.2739820  93.4973190  40.7709940
  61.6504640  92.6245070  40.6583610  61.1759330  93.8331890  39.8800380
  55.4044830  91.8698820  36.2327380  55.5111580  92.7702550  36.5396140
  54.4937190  91.8216790  35.9422030  65.0563940  90.9923630  37.7038280
  65.8773560  90.5020200  37.7463760  65.0898020  91.5821290  38.4570120
  53.0527990  93.7917830  41.4779970  53.7338100  94.0556200  42.0967370
  52.7376040  92.9518700  41.8117980  57.2452560  94.8385190  40.5652560
  57.7530780  95.3366160  41.2057580  57.7765800  94.0620390  40.3891920
  69.3463490  93.0090380  44.2681910  68.6415660  93.3972090  43.7497020
  69.6121410  93.7040670  44.8702840  55.5288660  89.4783750  44.8315980
  55.5307100  89.9956140  44.0261880  54.6992970  89.0013930  44.8085910
  65.2925420  92.9324010  40.4765820  64.5880990  93.2208900  41.0568930
  65.6537580  93.7424120  40.1165380  55.2103990  91.1893710  42.8386430
  55.5520800  92.0335760  42.5440300  54.2719800  91.3377450  42.9551770
  68.3612340  92.3778800  40.8675030  67.4137250  92.4117780  40.9990460
  68.6862330  93.1917750  41.2524390  58.8931880  88.6775980  39.1631020
  59.2006860  88.1222870  38.4466520  57.9632580  88.8120440  38.9804010
  61.2812640  96.7424810  35.8991140  60.3541920  96.6762190  36.1279610
  61.4337460  97.6804940  35.7846380  61.2681720  93.0141810  32.8958300
  60.3285390  93.1755770  32.9810760  61.5864980  93.7327490  32.3494290
  67.7894480  97.6960330  42.8737330  66.9613110  97.7653420  42.3987460
  68.3844960  98.2814640  42.4053160  65.3109930  98.3045110  36.4026390
  64.6922350  97.9664660  35.7552690  65.2934380  97.6604870  37.1105580
  64.7536490  94.4829650  43.8192200  64.3407670  95.3083360  44.0732190
  64.0212440  93.8974690  43.6268560  56.8869280  97.2689550  38.6810870
  56.4826280  96.5566800  38.1856770  56.9732400  96.9242790  39.5698910
  55.5997900  94.0432760  42.4609910  56.1512490  94.1528100  41.6863160
  56.1141410  94.4170360  43.1765140  63.4874630  97.5431920  33.4099140
  63.9267910  96.7054350  33.2636960  64.2003050  98.1761320  33.4963280
  55.2740630  97.5652120  46.0715250  55.1348400  98.4374920  46.4402650
  54.3921990  97.2224930  45.9263190  67.0691770  88.7974730  31.7240180
  66.7564430  88.8901560  32.6239250  67.8304240  89.3755760  31.6737610
  53.5873910  96.1634530  36.1817520  53.4671510  96.8896620  35.5698790
  53.2774800  95.3937440  35.7045430  68.2793060  93.5346230  47.7014320
  67.6637330  94.0425900  47.1729780  67.9589480  92.6344560  47.6440260
  56.0537570  89.5069600  39.5641190  55.6105720  90.2879140  39.2325710
  56.6122560  89.8299490  40.2712130  60.3407380  92.3738120  45.1676510
  59.8786750  92.5821140  45.9796450  59.9385490  91.5597470  44.8647180
  65.3411890  93.5947070  46.2973170  64.4905480  93.2952820  46.6182240
  65.1813680  93.8389080  45.3856990  62.4361600  95.0948820  48.3971960
  62.7615010  94.2612570  48.0574190  63.2241930  95.6177340  48.5450290
  59.1696390  89.1280300  34.4447020  58.5450570  89.1240170  35.1700330
  59.0826510  88.2611260  34.0482990  58.0913470  90.0516930  41.4230790
  58.3885800  90.9579760  41.3422810  58.6399030  89.5635710  40.8090360
  55.8451790  94.6303170  37.2922440  55.6192710  94.4140340  38.1969060
  55.0644320  95.0631630  36.9468410  63.0749550  94.6366540  35.8913090
  62.4758440  95.3602340  35.7076710  63.6229160  94.5743320  35.1089540
  58.2851000  95.5288750  47.9582710  58.1894600  94.5883480  47.8083110
  59.1282980  95.7503820  47.5630780  61.6814420  93.2730080  37.9216370
  62.0743990  93.5902280  37.1085060  62.0431270  92.3941960  38.0360890
  53.4161540  91.9402420  46.1116490  53.0224930  92.7877630  46.3189270
  52.7279940  91.3028790  46.3025130  59.9906590  92.0237390  49.1813230
  59.3004910  91.8309590  49.8159320  60.7338890  92.3072030  49.7137530
  50.7178590  89.8630880  40.1446570  50.4291640  90.4333740  40.8571550
  51.4624350  89.3835330  40.5077800  50.9048820  93.8051000  31.3549290
  50.8223490  94.7481760  31.4964280  50.5531880  93.6625910  30.4761640
  62.2669560  95.8635830  42.0167150  61.5350680  96.3722640  42.3657250
  61.8693900  95.0465810  41.7155930  58.7046950  92.5390030  40.4219640
  58.7083010  92.0979980  39.5724180  59.5998070  92.8607360  40.5291460
  54.5549330  92.4216520  39.3813850  54.2149380  92.8991750  40.1380900
  53.7926650  91.9681640  39.0214950  58.7667100  93.5402110  33.4126400
  58.8879920  93.4988590  34.3612220  58.3815610  94.4026260  33.2573130
  62.7295470  91.3169510  41.4290090  62.7468210  91.7678160  42.2731940
  62.4811050  90.4175150  41.6423530  57.7788600  95.8503250  32.8109700
  57.2105500  95.4021500  32.1845610  58.4877600  96.2096030  32.2774850
  66.1566220  88.7301690  47.2676470  66.4811990  87.9991350  47.7934450
  66.1922730  88.4115330  46.3657460  59.0054920  96.5991810  42.1685050
  59.3725050  96.1250380  42.9146390  58.8159980  97.4733380  42.5093390
  51.8695410  91.3435500  38.2978520  51.5842330  90.9791170  39.1357140
  51.8074270  90.6115960  37.6841660  56.7954290  95.6400450  44.4869260
  56.4911360  96.5192430  44.7119620  57.7500750  95.7000240  44.5226700
  61.5434000  90.2364760  35.0191890  60.7298610  89.7377930  34.9437200
  61.3495950  91.0763010  34.6028240  64.2582390  94.6084410  33.3154050
  65.1462010  94.9201640  33.1405390  64.2287480  93.7356660  32.9234630
  52.8518020  96.4803190  45.6340620  52.4932960  97.1457040  46.2213960
  52.5572580  95.6486740  46.0053240  56.0531140  96.9387430  48.5180170
  55.7531280  97.0844610  47.6207990  56.8242380  96.3792720  48.4253560
  66.5296660  95.9196250  32.7833910  66.4460380  96.3510470  31.9330350
  67.2490850  96.3794600  33.2160730  67.6070800  98.3763770  45.8603880
  66.8818990  98.9692550  45.6633270  68.1346260  98.3687310  45.0617250
  51.3626070  96.4794450  32.2575220  52.2320920  96.7619250  32.5411140
  50.8716390  97.2930320  32.1424030  58.5260880  97.8667660  36.3783500
  58.9823660  98.6772910  36.6043690  58.1749090  97.5490800  37.2101990
  54.4272660  88.2105310  36.8506020  54.2987290  88.2023210  37.7990940
  53.6034680  88.5488400  36.4997030  51.4266590  89.9696430  46.3112720
  50.7125110  90.1693350  46.9165330  51.8461630  89.1936000  46.6827520
  62.9205370  92.4618740  44.0614170  63.2886190  91.6413950  44.3893740
  62.0603570  92.5220630  44.4769820  66.2867400  91.4175680  34.8701730
  65.6580560  91.5221350  34.1559960  65.7919320  91.6372460  35.6595610
  58.2551430  93.6961630  36.2859610  57.5467580  94.1647970  36.7273220
  58.5395910  93.0383640  36.9204800  59.8807360  95.1158330  44.2852140
  60.3792610  95.5904150  44.9503990  60.0230310  94.1921850  44.4922170
  62.2866860  90.4212290  37.7255400  62.1634640  90.4398420  36.7764910
  63.2351420  90.4691230  37.8453800  56.4586450  92.0046710  33.6610320
  57.3076980  92.4416860  33.5950510  56.0917720  92.3166970  34.4882380
  67.0874220  91.3326290  45.1280530  66.5847820  92.0731690  45.4674340
  67.9030880  91.7210290  44.8117320  65.3796230  96.5759470  38.5741890
  64.4386370  96.5909700  38.7489580  65.6940300  95.7895430  39.0202190
  55.3577870  98.2579070  32.1345850  56.1241140  98.1460430  32.6971280
  55.4352560  97.5617040  31.4822620  54.0524630  95.6904140  32.8178740
  54.1328220  94.7431650  32.9296140  54.9444380  96.0211020  32.9239400
  51.5795430  97.5119060  48.0534910  52.0834450  96.9326340  48.6251140
  50.8402850  97.7959290  48.5911280  53.6118510  95.6548650  48.9484980
  53.6523850  95.3562520  49.8570210  54.4664010  96.0556260  48.7892500
  57.3896900  98.2544200  34.1088490  57.8113320  98.0884070  34.9519880
  57.5147740  97.4444430  33.6143630  55.5524320  94.2340750  46.9159470
  55.0220780  93.7431700  46.2882810  56.2212390  94.6624950  46.3817400
  59.9024540  97.2781810  31.3565590  60.4230200  96.5630830  30.9906740
  60.5492940  97.9167680  31.6566100  64.4502380  98.7010210  46.6800660
  64.8643400  98.8555290  47.5291080  63.5153380  98.8265430  46.8426440
  64.9224550  96.0406370  48.6839810  65.5045320  95.2858690  48.5960290
  65.0986320  96.5713810  47.9071290  56.0396620  91.2003120  46.9956760
  55.9453490  90.5823870  46.2707630  55.4594010  91.9269410  46.7686670
  58.8058060  89.7576360  44.0284150  58.3575360  89.7800620  43.1829700
  58.1723260  89.3595380  44.6254450  61.5481510  96.3846870  46.0334430
  61.6677720  95.7888010  46.7729270  62.4075510  96.4216560  45.6135730
  63.8869410  96.9384060  44.6096940  63.3604630  97.4626680  44.0062080
  64.2300750  97.5711450  45.2406670  56.2855800  94.3277430  31.0546650
  56.0844860  93.4644790  31.4159990  56.1147850  94.2410790  30.1168250
  58.3150280  92.9268220  47.2910250  58.9049970  92.6184070  47.9788070
  57.4970520  92.4547970  47.4470150  63.1343710  92.5434030  47.5243270
  62.4459230  91.8815570  47.4593260  63.8549730  92.0972300  47.9691730
  63.7644110  89.1385660  33.5833530  64.0446400  88.2953560  33.9392950
  62.9909840  89.3708770  34.0972280  55.0838600  91.4278050  31.0424530
  55.3864500  91.4345480  30.1343680  55.8233190  91.0775910  31.5392190
  58.3023530  90.3712670  32.0280730  57.9545530  89.6936660  31.4483180
  58.5036300  89.9102180  32.8424120  68.1424830  98.3762390  34.1937440
  68.9043740  98.9459040  34.2997130  68.1579200  97.8089590  34.9645750
  51.6429170  96.9000320  38.4245100  50.9878010  96.6311960  37.7804800
  52.4807120  96.7904800  37.9747080  64.5919610  91.6941610  32.6463590
  65.0104490  91.5072590  31.8060250  64.2855670  90.8420660  32.9566520
  68.0909340  96.6065750  36.3439390  67.7152940  95.8393680  35.9120680
  67.3612460  96.9888450  36.8314320  52.6805100  97.2852890  42.9648440
  53.0478140  97.1980290  43.8444460  52.1115920  96.5219440  42.8655300
  67.4808960  95.7537270  45.9778910  67.2495050  95.5250020  45.0776860
  67.7413510  96.6736820  45.9323800  52.2321100  94.1961980  46.8706860
  51.3377150  94.1628740  47.2100570  52.7718650  94.3948770  47.6358110
  65.9197030  90.9793700  48.7558610  66.7967210  90.9877100  49.1392610
  65.9317870  90.2424540  48.1450960  50.8567250  94.1099250  34.3670430
  49.9531330  94.3729450  34.1922090  51.3407870  94.3810420  33.5870390
  67.3660300  94.8323240  39.6446630  67.8897780  94.3385890  39.0136800
  67.9519720  94.9673600  40.3894200  67.5450020  94.9163110  43.1666180
  66.5952730  94.8826650  43.2811170  67.7263030  95.8263220  42.9315950
  53.3994460  93.1664790  32.2764810  54.1086160  92.7448010  31.7912090
  52.6834400  93.2340020  31.6448160  53.0468620  89.2204120  31.3167460
  53.7696750  89.7613060  31.6348680  53.3193140  88.9467540  30.4409000
  66.8560270  94.0896590  35.5839040  67.3519390  93.8567460  36.3687920
  66.6576340  93.2508430  35.1676680  52.7360810  88.4710310  41.2190080
  53.3837000  87.9207690  40.7785240  53.1562650  88.7253460  42.0405890
  68.2847430  92.7257540  38.1176720  68.1746710  92.5713580  39.0558990
  69.0455020  92.1978480  37.8752130  66.6313150  88.6651670  44.5759720
  67.2685370  89.2785810  44.9418910  66.7788040  88.7012330  43.6308950
  69.1737700  90.5565460  31.3582860  70.0987010  90.4246640  31.1501150
  69.1513490  90.6358280  32.3119310  69.2476190  91.3276120  33.9839570
  68.4527690  91.2621240  34.5132480  69.4519470  92.2626760  33.9724920
  52.4892810  88.6265980  43.9615400  52.1407630  89.0829800  44.7273580
  52.1580510  87.7323110  44.0437830  60.0017630  89.8177860  47.4834820
  59.9406520  90.4099690  48.2330230  60.9418010  89.7103820  47.3385080
  62.6392190  89.4747920  47.1227110  63.2532600  89.7927210  46.4608190
  63.1841750  88.9896510  47.7422970  53.1613450  88.1542180  47.2366170
  53.7096440  87.9730230  46.4732280  53.2268760  87.3636290  47.7722480
  63.3800230  88.0380060  43.4496400  62.5060070  88.3715170  43.2469330
  63.2710980  87.5653240  44.2748270  64.2872210  90.2450930  44.8338120
  63.9585570  89.4302690  44.4539850  65.2354510  90.2020740  44.7103810
  61.1275050  88.9549900  42.3889310  60.3446840  89.4295400  42.6686070
  60.8337980  88.0504730  42.2802490  65.6796120  89.6573000  40.4338400
  66.1204210  89.6018100  39.5860000  65.4103710  90.5731010  40.5048580
  67.5434690  89.2888240  38.4447220  67.4823090  88.3449460  38.2978240
  68.3226720  89.3968330  38.9900680  52.4715460  89.2597380  34.9103030
  53.2294820  89.3726260  34.3367060  52.0092630  90.0966580  34.8646460
  59.0129270  91.3736650  37.9005340  58.2003780  90.9993540  37.5601220
  59.5170910  90.6181730  38.2026530  63.5154250  88.0379100  39.1388410
  64.1183620  88.6099310  39.6136930  62.7747240  88.6018540  38.9162310
  66.6588850  88.4400660  34.4128690  66.8539480  89.3384110  34.6796120
  65.8718720  88.2087740  34.9061640  54.8440610  89.7861430  33.4505000
  55.3733370  88.9991230  33.3212950  55.4768930  90.4652620  33.6840530
  57.0378450  89.5236570  36.5050390  56.4081190  88.8223880  36.6720520
  56.4983590  90.2840700  36.2883550  57.1634010  88.8020550  48.9402880
  56.8818280  89.3054150  48.1763700  57.5453710  88.0042300  48.5745010
  63.7649470  88.2174130  49.5183350  63.6514920  88.5368740  50.4134870
  64.5819210  88.6186640  49.2220630  62.6707620  96.2366600  19.8818090
  62.5901670  95.3221210  19.6109800  62.2572040  96.7333670  19.1757800
  60.8025660  98.0145620  21.7627360  60.0267760  97.5346060  22.0525930
  61.4538590  97.3351270  21.5883520  54.8191490  98.3265430  22.6403120
  53.9876370  98.0714140  23.0399630  55.4272470  98.3976200  23.3761040
  53.2283440  93.2867320  16.4245510  52.3400140  93.6283290  16.3225390
  53.5124630  93.0867640  15.5326340  51.1916450  95.8872970  22.3085210
  51.7632560  95.1195170  22.3088850  51.1917990  96.1861730  21.3991820
  52.4341320  91.2957330  24.0954140  52.2544160  90.3983080  24.3756900
  52.0321400  91.8429200  24.7701090  61.2739820  93.4973190  21.9966450
  61.6504640  92.6245070  21.8840120  61.1759330  93.8331890  21.1056890
  55.4044830  91.8698820  17.4583890  55.5111580  92.7702550  17.7652650
  54.4937190  91.8216790  17.1678540  65.0563940  90.9923630  18.9294790
  65.8773560  90.5020200  18.9720270  65.0898020  91.5821290  19.6826630
  53.0527990  93.7917830  22.7036480  53.7338100  94.0556200  23.3223880
  52.7376040  92.9518700  23.0374490  57.2452560  94.8385190  21.7909070
  57.7530780  95.3366160  22.4314090  57.7765800  94.0620390  21.6148430
  69.3463490  93.0090380  25.4938420  68.6415660  93.3972090  24.9753530
  69.6121410  93.7040670  26.0959350  55.5288660  89.4783750  26.0572490
  55.5307100  89.9956140  25.2518390  54.6992970  89.0013930  26.0342420
  65.2925420  92.9324010  21.7022330  64.5880990  93.2208900  22.2825440
  65.6537580  93.7424120  21.3421890  55.2103990  91.1893710  24.0642940
  55.5520800  92.0335760  23.7696810  54.2719800  91.3377450  24.1808280
  68.3612340  92.3778800  22.0931540  67.4137250  92.4117780  22.2246970
  68.6862330  93.1917750  22.4780900  58.8931880  88.6775980  20.3887530
  59.2006860  88.1222870  19.6723030  57.9632580  88.8120440  20.2060520
  61.2812640  96.7424810  17.1247650  60.3541920  96.6762190  17.3536120
  61.4337460  97.6804940  17.0102890  61.2681720  93.0141810  14.1214810
  60.3285390  93.1755770  14.2067270  61.5864980  93.7327490  13.5750800
  67.7894480  97.6960330  24.0993840  66.9613110  97.7653420  23.6243970
  68.3844960  98.2814640  23.6309670  65.3109930  98.3045110  17.6282900
  64.6922350  97.9664660  16.9809200  65.2934380  97.6604870  18.3362090
  64.7536490  94.4829650  25.0448710  64.3407670  95.3083360  25.2988700
  64.0212440  93.8974690  24.8525070  56.8869280  97.2689550  19.9067380
  56.4826280  96.5566800  19.4113280  56.9732400  96.9242790  20.7955420
  55.5997900  94.0432760  23.6866420  56.1512490  94.1528100  22.9119670
  56.1141410  94.4170360  24.4021650  63.4874630  97.5431920  14.6355650
  63.9267910  96.7054350  14.4893470  64.2003050  98.1761320  14.7219790
  55.2740630  97.5652120  27.2971760  55.1348400  98.4374920  27.6659160
  54.3921990  97.2224930  27.1519700  67.0691770  88.7974730  12.9496690
  66.7564430  88.8901560  13.8495760  67.8304240  89.3755760  12.8994120
  53.5873910  96.1634530  17.4074030  53.4671510  96.8896620  16.7955300
  53.2774800  95.3937440  16.9301940  68.2793060  93.5346230  28.9270830
  67.6637330  94.0425900  28.3986290  67.9589480  92.6344560  28.8696770
  56.0537570  89.5069600  20.7897700  55.6105720  90.2879140  20.4582220
  56.6122560  89.8299490  21.4968640  60.3407380  92.3738120  26.3933020
  59.8786750  92.5821140  27.2052960  59.9385490  91.5597470  26.0903690
  65.3411890  93.5947070  27.5229680  64.4905480  93.2952820  27.8438750
  65.1813680  93.8389080  26.6113500  62.4361600  95.0948820  29.6228470
  62.7615010  94.2612570  29.2830700  63.2241930  95.6177340  29.7706800
  59.1696390  89.1280300  15.6703530  58.5450570  89.1240170  16.3956840
  59.0826510  88.2611260  15.2739500  58.0913470  90.0516930  22.6487300
  58.3885800  90.9579760  22.5679320  58.6399030  89.5635710  22.0346870
  55.8451790  94.6303170  18.5178950  55.6192710  94.4140340  19.4225570
  55.0644320  95.0631630  18.1724920  63.0749550  94.6366540  17.1169600
  62.4758440  95.3602340  16.9333220  63.6229160  94.5743320  16.3346050
  58.2851000  95.5288750  29.1839220  58.1894600  94.5883480  29.0339620
  59.1282980  95.7503820  28.7887290  61.6814420  93.2730080  19.1472880
  62.0743990  93.5902280  18.3341570  62.0431270  92.3941960  19.2617400
  53.4161540  91.9402420  27.3373000  53.0224930  92.7877630  27.5445780
  52.7279940  91.3028790  27.5281640  59.9906590  92.0237390  30.4069740
  59.3004910  91.8309590  31.0415830  60.7338890  92.3072030  30.9394040
  50.7178590  89.8630880  21.3703080  50.4291640  90.4333740  22.0828060
  51.4624350  89.3835330  21.7334310  50.9048820  93.8051000  12.5805800
  50.8223490  94.7481760  12.7220790  50.5531880  93.6625910  11.7018150
  62.2669560  95.8635830  23.2423660  61.5350680  96.3722640  23.5913760
  61.8693900  95.0465810  22.9412440  58.7046950  92.5390030  21.6476150
  58.7083010  92.0979980  20.7980690  59.5998070  92.8607360  21.7547970
  54.5549330  92.4216520  20.6070360  54.2149380  92.8991750  21.3637410
  53.7926650  91.9681640  20.2471460  58.7667100  93.5402110  14.6382910
  58.8879920  93.4988590  15.5868730  58.3815610  94.4026260  14.4829640
  62.7295470  91.3169510  22.6546600  62.7468210  91.7678160  23.4988450
  62.4811050  90.4175150  22.8680040  57.7788600  95.8503250  14.0366210
  57.2105500  95.4021500  13.4102120  58.4877600  96.2096030  13.5031360
  66.1566220  88.7301690  28.4932980  66.4811990  87.9991350  29.0190960
  66.1922730  88.4115330  27.5913970  59.0054920  96.5991810  23.3941560
  59.3725050  96.1250380  24.1402900  58.8159980  97.4733380  23.7349900
  51.8695410  91.3435500  19.5235030  51.5842330  90.9791170  20.3613650
  51.8074270  90.6115960  18.9098170  56.7954290  95.6400450  25.7125770
  56.4911360  96.5192430  25.9376130  57.7500750  95.7000240  25.7483210
  61.5434000  90.2364760  16.2448400  60.7298610  89.7377930  16.1693710
  61.3495950  91.0763010  15.8284750  64.2582390  94.6084410  14.5410560
  65.1462010  94.9201640  14.3661900  64.2287480  93.7356660  14.1491140
  52.8518020  96.4803190  26.8597130  52.4932960  97.1457040  27.4470470
  52.5572580  95.6486740  27.2309750  56.0531140  96.9387430  29.7436680
  55.7531280  97.0844610  28.8464500  56.8242380  96.3792720  29.6510070
  66.5296660  95.9196250  14.0090420  66.4460380  96.3510470  13.1586860
  67.2490850  96.3794600  14.4417240  67.6070800  98.3763770  27.0860390
  66.8818990  98.9692550  26.8889780  68.1346260  98.3687310  26.2873760
  58.5260880  97.8667660  17.6040010  58.9823660  98.6772910  17.8300200
  58.1749090  97.5490800  18.4358500  54.4272660  88.2105310  18.0762530
  54.2987290  88.2023210  19.0247450  53.6034680  88.5488400  17.7253540
  51.4266590  89.9696430  27.5369230  50.7125110  90.1693350  28.1421840
  51.8461630  89.1936000  27.9084030  62.9205370  92.4618740  25.2870680
  63.2886190  91.6413950  25.6150250  62.0603570  92.5220630  25.7026330
  66.2867400  91.4175680  16.0958240  65.6580560  91.5221350  15.3816470
  65.7919320  91.6372460  16.8852120  58.2551430  93.6961630  17.5116120
  57.5467580  94.1647970  17.9529730  58.5395910  93.0383640  18.1461310
  59.8807360  95.1158330  25.5108650  60.3792610  95.5904150  26.1760500
  60.0230310  94.1921850  25.7178680  62.2866860  90.4212290  18.9511910
  62.1634640  90.4398420  18.0021420  63.2351420  90.4691230  19.0710310
  56.4586450  92.0046710  14.8866830  57.3076980  92.4416860  14.8207020
  56.0917720  92.3166970  15.7138890  67.0874220  91.3326290  26.3537040
  66.5847820  92.0731690  26.6930850  67.9030880  91.7210290  26.0373830
  65.3796230  96.5759470  19.7998400  64.4386370  96.5909700  19.9746090
  65.6940300  95.7895430  20.2458700  55.3577870  98.2579070  13.3602360
  56.1241140  98.1460430  13.9227790  55.4352560  97.5617040  12.7079130
  54.0524630  95.6904140  14.0435250  54.1328220  94.7431650  14.1552650
  54.9444380  96.0211020  14.1495910  51.5795430  97.5119060  29.2791420
  52.0834450  96.9326340  29.8507650  50.8402850  97.7959290  29.8167790
  53.6118510  95.6548650  30.1741490  53.6523850  95.3562520  31.0826720
  54.4664010  96.0556260  30.0149010  57.3896900  98.2544200  15.3345000
  57.8113320  98.0884070  16.1776390  57.5147740  97.4444430  14.8400140
  55.5524320  94.2340750  28.1415980  55.0220780  93.7431700  27.5139320
  56.2212390  94.6624950  27.6073910  59.9024540  97.2781810  12.5822100
  60.4230200  96.5630830  12.2163250  60.5492940  97.9167680  12.8822610
  64.4502380  98.7010210  27.9057170  64.8643400  98.8555290  28.7547590
  63.5153380  98.8265430  28.0682950  64.9224550  96.0406370  29.9096320
  65.5045320  95.2858690  29.8216800  65.0986320  96.5713810  29.1327800
  58.8058060  89.7576360  25.2540660  58.3575360  89.7800620  24.4086210
  58.1723260  89.3595380  25.8510960  61.5481510  96.3846870  27.2590940
  61.6677720  95.7888010  27.9985780  62.4075510  96.4216560  26.8392240
  63.8869410  96.9384060  25.8353450  63.3604630  97.4626680  25.2318590
  64.2300750  97.5711450  26.4663180  56.2855800  94.3277430  12.2803160
  56.0844860  93.4644790  12.6416500  56.1147850  94.2410790  11.3424760
  58.3150280  92.9268220  28.5166760  58.9049970  92.6184070  29.2044580
  57.4970520  92.4547970  28.6726660  63.1343710  92.5434030  28.7499780
  62.4459230  91.8815570  28.6849770  63.8549730  92.0972300  29.1948240
  63.7644110  89.1385660  14.8090040  64.0446400  88.2953560  15.1649460
  62.9909840  89.3708770  15.3228790  55.0838600  91.4278050  12.2681040
  55.3864500  91.4345480  11.3600190  55.8233190  91.0775910  12.7648700
  58.3023530  90.3712670  13.2537240  57.9545530  89.6936660  12.6739690
  58.5036300  89.9102180  14.0680630  68.1424830  98.3762390  15.4193950
  68.9043740  98.9459040  15.5253640  68.1579200  97.8089590  16.1902260
  51.6429170  96.9000320  19.6501610  50.9878010  96.6311960  19.0061310
  52.4807120  96.7904800  19.2003590  64.5919610  91.6941610  13.8720100
  65.0104490  91.5072590  13.0316760  64.2855670  90.8420660  14.1823030
  68.0909340  96.6065750  17.5695900  67.7152940  95.8393680  17.1377190
  67.3612460  96.9888450  18.0570830  52.6805100  97.2852890  24.1904950
  53.0478140  97.1980290  25.0700970  52.1115920  96.5219440  24.0911810
  67.4808960  95.7537270  27.2035420  67.2495050  95.5250020  26.3033370
  67.7413510  96.6736820  27.1580310  52.2321100  94.1961980  28.0963370
  51.3377150  94.1628740  28.4357080  52.7718650  94.3948770  28.8614620
  65.9197030  90.9793700  29.9815120  66.7967210  90.9877100  30.3649120
  65.9317870  90.2424540  29.3707470  50.8567250  94.1099250  15.5926940
  49.9531330  94.3729450  15.4178600  51.3407870  94.3810420  14.8126900
  67.3660300  94.8323240  20.8703140  67.8897780  94.3385890  20.2393310
  67.9519720  94.9673600  21.6150710  67.5450020  94.9163110  24.3922690
  66.5952730  94.8826650  24.5067680  67.7263030  95.8263220  24.1572460
  53.3994460  93.1664790  13.5021320  54.1086160  92.7448010  13.0168600
  52.6834400  93.2340020  12.8704670  53.0468620  89.2204120  12.5423970
  53.7696750  89.7613060  12.8605190  53.3193140  88.9467540  11.6665510
  66.8560270  94.0896590  16.8095550  67.3519390  93.8567460  17.5944430
  66.6576340  93.2508430  16.3933190  52.7360810  88.4710310  22.4446590
  53.3837000  87.9207690  22.0041750  53.1562650  88.7253460  23.2662400
  68.2847430  92.7257540  19.3433230  68.1746710  92.5713580  20.2815500
  69.0455020  92.1978480  19.1008640  66.6313150  88.6651670  25.8016230
  67.2685370  89.2785810  26.1675420  66.7788040  88.7012330  24.8565460
  69.1737700  90.5565460  12.5839370  70.0987010  90.4246640  12.3757660
  69.1513490  90.6358280  13.5375820  69.2476190  91.3276120  15.2096080
  68.4527690  91.2621240  15.7388990  69.4519470  92.2626760  15.1981430
  52.4892810  88.6265980  25.1871910  52.1407630  89.0829800  25.9530090
  52.1580510  87.7323110  25.2694340  60.0017630  89.8177860  28.7091330
  59.9406520  90.4099690  29.4586740  60.9418010  89.7103820  28.5641590
  62.6392190  89.4747920  28.3483620  63.2532600  89.7927210  27.6864700
  63.1841750  88.9896510  28.9679480  53.1613450  88.1542180  28.4622680
  53.7096440  87.9730230  27.6988790  53.2268760  87.3636290  28.9978990
  63.3800230  88.0380060  24.6752910  62.5060070  88.3715170  24.4725840
  63.2710980  87.5653240  25.5004780  64.2872210  90.2450930  26.0594630
  63.9585570  89.4302690  25.6796360  65.2354510  90.2020740  25.9360320
  61.1275050  88.9549900  23.6145820  60.3446840  89.4295400  23.8942580
  60.8337980  88.0504730  23.5059000  65.6796120  89.6573000  21.6594910
  66.1204210  89.6018100  20.8116510  65.4103710  90.5731010  21.7305090
  67.5434690  89.2888240  19.6703730  67.4823090  88.3449460  19.5234750
  68.3226720  89.3968330  20.2157190  52.4715460  89.2597380  16.1359540
  53.2294820  89.3726260  15.5623570  52.0092630  90.0966580  16.0902970
  59.0129270  91.3736650  19.1261850  58.2003780  90.9993540  18.7857730
  59.5170910  90.6181730  19.4283040  63.5154250  88.0379100  20.3644920
  64.1183620  88.6099310  20.8393440  62.7747240  88.6018540  20.1418820
  66.6588850  88.4400660  15.6385200  66.8539480  89.3384110  15.9052630
  65.8718720  88.2087740  16.1318150  54.8440610  89.7861430  14.6761510
  55.3733370  88.9991230  14.5469460  55.4768930  90.4652620  14.9097040
  57.0378450  89.5236570  17.7306900  56.4081190  88.8223880  17.8977030
  56.4983590  90.2840700  17.5140060  57.1634010  88.8020550  30.1659390
  56.8818280  89.3054150  29.4020210  57.5453710  88.0042300  29.8001520
  63.7649470  88.2174130  30.7439860  63.6514920  88.5368740  31.6391380
  64.5819210  88.6186640  30.4477140  60.8025660  98.0145620   2.9883870
  60.0267760  97.5346060   3.2782440  61.4538590  97.3351270   2.8140030
  54.8191490  98.3265430   3.8659630  53.9876370  98.0714140   4.2656140
  55.4272470  98.3976200   4.6017550  51.1916450  95.8872970   3.5341720
  51.7632560  95.1195170   3.5345360  51.1917990  96.1861730   2.6248330
  52.4341320  91.2957330   5.3210650  52.2544160  90.3983080   5.6013410
  52.0321400  91.8429200   5.9957600  61.2739820  93.4973190   3.2222960
  61.6504640  92.6245070   3.1096630  61.1759330  93.8331890   2.3313400
  53.0527990  93.7917830   3.9292990  53.7338100  94.0556200   4.5480390
  52.7376040  92.9518700   4.2631000  57.2452560  94.8385190   3.0165580
  57.7530780  95.3366160   3.6570600  57.7765800  94.0620390   2.8404940
  69.3463490  93.0090380   6.7194930  68.6415660  93.3972090   6.2010040
  69.6121410  93.7040670   7.3215860  55.5288660  89.4783750   7.2829000
  55.5307100  89.9956140   6.4774900  54.6992970  89.0013930   7.2598930
  65.2925420  92.9324010   2.9278840  64.5880990  93.2208900   3.5081950
  65.6537580  93.7424120   2.5678400  55.2103990  91.1893710   5.2899450
  55.5520800  92.0335760   4.9953320  54.2719800  91.3377450   5.4064790
  68.3612340  92.3778800   3.3188050  67.4137250  92.4117780   3.4503480
  68.6862330  93.1917750   3.7037410  67.7894480  97.6960330   5.3250350
  66.9613110  97.7653420   4.8500480  68.3844960  98.2814640   4.8566180
  64.7536490  94.4829650   6.2705220  64.3407670  95.3083360   6.5245210
  64.0212440  93.8974690   6.0781580  55.5997900  94.0432760   4.9122930
  56.1512490  94.1528100   4.1376180  56.1141410  94.4170360   5.6278160
  55.2740630  97.5652120   8.5228270  55.1348400  98.4374920   8.8915670
  54.3921990  97.2224930   8.3776210  68.2793060  93.5346230  10.1527340
  67.6637330  94.0425900   9.6242800  67.9589480  92.6344560  10.0953280
  56.0537570  89.5069600   2.0154210  55.6105720  90.2879140   1.6838730
  56.6122560  89.8299490   2.7225150  60.3407380  92.3738120   7.6189530
  59.8786750  92.5821140   8.4309470  59.9385490  91.5597470   7.3160200
  65.3411890  93.5947070   8.7486190  64.4905480  93.2952820   9.0695260
  65.1813680  93.8389080   7.8370010  62.4361600  95.0948820  10.8484980
  62.7615010  94.2612570  10.5087210  63.2241930  95.6177340  10.9963310
  58.0913470  90.0516930   3.8743810  58.3885800  90.9579760   3.7935830
  58.6399030  89.5635710   3.2603380  58.2851000  95.5288750  10.4095730
  58.1894600  94.5883480  10.2596130  59.1282980  95.7503820  10.0143800
  53.4161540  91.9402420   8.5629510  53.0224930  92.7877630   8.7702290
  52.7279940  91.3028790   8.7538150  59.9906590  92.0237390  11.6326250
  59.3004910  91.8309590  12.2672340  60.7338890  92.3072030  12.1650550
  50.7178590  89.8630880   2.5959590  50.4291640  90.4333740   3.3084570
  51.4624350  89.3835330   2.9590820  62.2669560  95.8635830   4.4680170
  61.5350680  96.3722640   4.8170270  61.8693900  95.0465810   4.1668950
  58.7046950  92.5390030   2.8732660  58.7083010  92.0979980   2.0237200
  59.5998070  92.8607360   2.9804480  54.5549330  92.4216520   1.8326870
  54.2149380  92.8991750   2.5893920  53.7926650  91.9681640   1.4727970
  62.7295470  91.3169510   3.8803110  62.7468210  91.7678160   4.7244960
  62.4811050  90.4175150   4.0936550  66.1566220  88.7301690   9.7189490
  66.4811990  87.9991350  10.2447470  66.1922730  88.4115330   8.8170480
  59.0054920  96.5991810   4.6198070  59.3725050  96.1250380   5.3659410
  58.8159980  97.4733380   4.9606410  56.7954290  95.6400450   6.9382280
  56.4911360  96.5192430   7.1632640  57.7500750  95.7000240   6.9739720
  52.8518020  96.4803190   8.0853640  52.4932960  97.1457040   8.6726980
  52.5572580  95.6486740   8.4566260  56.0531140  96.9387430  10.9693190
  55.7531280  97.0844610  10.0721010  56.8242380  96.3792720  10.8766580
  67.6070800  98.3763770   8.3116900  66.8818990  98.9692550   8.1146290
  68.1346260  98.3687310   7.5130270  51.4266590  89.9696430   8.7625740
  50.7125110  90.1693350   9.3678350  51.8461630  89.1936000   9.1340540
  62.9205370  92.4618740   6.5127190  63.2886190  91.6413950   6.8406760
  62.0603570  92.5220630   6.9282840  59.8807360  95.1158330   6.7365160
  60.3792610  95.5904150   7.4017010  60.0230310  94.1921850   6.9435190
  67.0874220  91.3326290   7.5793550  66.5847820  92.0731690   7.9187360
  67.9030880  91.7210290   7.2630340  51.5795430  97.5119060  10.5047930
  52.0834450  96.9326340  11.0764160  50.8402850  97.7959290  11.0424300
  53.6118510  95.6548650  11.3998000  53.6523850  95.3562520  12.3083230
  54.4664010  96.0556260  11.2405520  55.5524320  94.2340750   9.3672490
  55.0220780  93.7431700   8.7395830  56.2212390  94.6624950   8.8330420
  64.4502380  98.7010210   9.1313680  64.8643400  98.8555290   9.9804100
  63.5153380  98.8265430   9.2939460  64.9224550  96.0406370  11.1352830
  65.5045320  95.2858690  11.0473310  65.0986320  96.5713810  10.3584310
  56.0396620  91.2003120   9.4469780  55.9453490  90.5823870   8.7220650
  55.4594010  91.9269410   9.2199690  58.8058060  89.7576360   6.4797170
  58.3575360  89.7800620   5.6342720  58.1723260  89.3595380   7.0767470
  61.5481510  96.3846870   8.4847450  61.6677720  95.7888010   9.2242290
  62.4075510  96.4216560   8.0648750  63.8869410  96.9384060   7.0609960
  63.3604630  97.4626680   6.4575100  64.2300750  97.5711450   7.6919690
  58.3150280  92.9268220   9.7423270  58.9049970  92.6184070  10.4301090
  57.4970520  92.4547970   9.8983170  63.1343710  92.5434030   9.9756290
  62.4459230  91.8815570   9.9106280  63.8549730  92.0972300  10.4204750
  52.6805100  97.2852890   5.4161460  53.0478140  97.1980290   6.2957480
  52.1115920  96.5219440   5.3168320  67.4808960  95.7537270   8.4291930
  67.2495050  95.5250020   7.5289880  67.7413510  96.6736820   8.3836820
  52.2321100  94.1961980   9.3219880  51.3377150  94.1628740   9.6613590
  52.7718650  94.3948770  10.0871130  65.9197030  90.9793700  11.2071630
  66.7967210  90.9877100  11.5905630  65.9317870  90.2424540  10.5963980
  67.3660300  94.8323240   2.0959650  67.8897780  94.3385890   1.4649820
  67.9519720  94.9673600   2.8407220  67.5450020  94.9163110   5.6179200
  66.5952730  94.8826650   5.7324190  67.7263030  95.8263220   5.3828970
  52.7360810  88.4710310   3.6703100  53.3837000  87.9207690   3.2298260
  53.1562650  88.7253460   4.4918910  66.6313150  88.6651670   7.0272740
  67.2685370  89.2785810   7.3931930  66.7788040  88.7012330   6.0821970
  52.4892810  88.6265980   6.4128420  52.1407630  89.0829800   7.1786600
  52.1580510  87.7323110   6.4950850  60.0017630  89.8177860   9.9347840
  59.9406520  90.4099690  10.6843250  60.9418010  89.7103820   9.7898100
  62.6392190  89.4747920   9.5740130  63.2532600  89.7927210   8.9121210
  63.1841750  88.9896510  10.1935990  53.1613450  88.1542180   9.6879190
  53.7096440  87.9730230   8.9245300  53.2268760  87.3636290  10.2235500
  63.3800230  88.0380060   5.9009420  62.5060070  88.3715170   5.6982350
  63.2710980  87.5653240   6.7261290  64.2872210  90.2450930   7.2851140
  63.9585570  89.4302690   6.9052870  65.2354510  90.2020740   7.1616830
  61.1275050  88.9549900   4.8402330  60.3446840  89.4295400   5.1199090
  60.8337980  88.0504730   4.7315510  65.6796120  89.6573000   2.8851420
  66.1204210  89.6018100   2.0373020  65.4103710  90.5731010   2.9561600
  57.1634010  88.8020550  11.3915900  56.8818280  89.3054150  10.6276720
  57.5453710  88.0042300  11.0258030  63.7649470  88.2174130  11.9696370
  63.6514920  88.5368740  12.8647890  64.5819210  88.6186640  11.6733650
  62.6707620  77.4623110  57.4305070  62.5901670  76.5477720  57.1596780
  62.2572040  77.9590180  56.7244780  60.8025660  79.2402130  59.3114340
  60.0267760  78.7602570  59.6012910  61.4538590  78.5607780  59.1370500
  64.8233090  83.6462320  58.0913470  64.3614620  82.8749560  58.4200640
  65.6358640  83.6728390  58.5965920  53.2283440  74.5123830  53.9732490
  52.3400140  74.8539800  53.8712370  53.5124630  74.3124150  53.0813320
  51.1916450  77.1129480  59.8572190  51.7632560  76.3451680  59.8575830
  51.1917990  77.4118240  58.9478800  61.0496400  85.9320330  57.7117460
  60.4307840  86.3877830  57.1411900  61.9048180  86.0871790  57.3107160
  60.2434650  81.9159320  59.3184500  60.1742930  80.9749260  59.1573630
  61.0054510  82.0060730  59.8907070  61.2739820  74.7229700  59.5453430
  61.6504640  73.8501580  59.4327100  61.1759330  75.0588400  58.6543870
  55.4044830  73.0955330  55.0070870  55.5111580  73.9959060  55.3139630
  54.4937190  73.0473300  54.7165520  65.0563940  72.2180140  56.4781770
  65.8773560  71.7276710  56.5207250  65.0898020  72.8077800  57.2313610
  57.2452560  76.0641700  59.3396050  57.7530780  76.5622670  59.9801070
  57.7765800  75.2876900  59.1635410  61.9159750  80.8159570  55.1049370
  61.2977020  81.2809020  54.5412090  62.4283000  81.5087050  55.5218880
  65.2925420  74.1580520  59.2509310  64.5880990  74.4465410  59.8312420
  65.6537580  74.9680630  58.8908870  51.2842950  81.5016100  52.4789000
  50.9070930  81.9903200  51.7473900  51.5416020  82.1741380  53.1095530
  68.3612340  73.6035310  59.6418520  67.4137250  73.6374290  59.7733950
  68.6862330  74.4174260  60.0267880  58.8931880  69.9032490  57.9374510
  59.2006860  69.3479380  57.2210010  57.9632580  70.0376950  57.7547500
  64.4446940  85.6199780  60.2281970  64.4574100  85.2162070  59.3604230
  63.8922160  86.3947070  60.1243400  65.7392360  82.3416000  55.3172140
  65.6288690  81.3990330  55.4421560  65.7360610  82.7031640  56.2034900
  61.2812640  77.9681320  54.6734630  60.3541920  77.9018700  54.9023100
  61.4337460  78.9061450  54.5589870  61.2681720  74.2398320  51.6701790
  60.3285390  74.4012280  51.7554250  61.5864980  74.9584000  51.1237780
  56.8869280  78.4946060  57.4554360  56.4826280  77.7823310  56.9600260
  56.9732400  78.1499300  58.3442400  57.3550980  82.1813620  59.6193570
  57.0579270  81.5759090  58.9401350  58.3050800  82.2190930  59.5082930
  63.4874630  78.7688430  52.1842630  63.9267910  77.9310860  52.0380450
  64.2003050  79.4017830  52.2706770  61.5970010  83.7084500  56.1523870
  62.0365920  84.4508830  55.7379260  61.5356900  83.9511070  57.0762830
  67.0691770  70.0231240  50.4983670  66.7564430  70.1158070  51.3982740
  67.8304240  70.6012270  50.4481100  53.5873910  77.3891040  54.9561010
  53.4671510  78.1153130  54.3442280  53.2774800  76.6193950  54.4788920
  52.4706910  82.2606370  57.1735830  52.0634990  82.4020960  56.3189430
  53.3619920  81.9766530  56.9707040  64.2640190  86.6953620  53.5086880
  64.1041330  86.4056560  54.4068710  64.0986900  85.9193750  52.9732110
  56.7428570  86.4752150  55.2858500  56.5671050  85.5587690  55.0726300
  55.8884310  86.8339440  55.5256300  63.9666320  84.2041180  52.0684880
  63.2731480  84.2018470  51.4087160  64.7089180  83.7800500  51.6379050
  63.5316250  85.8303890  56.1433370  63.9873200  85.0493270  56.4571990
  63.8708770  86.5410710  56.6874550  56.0537570  70.7326110  58.3384680
  55.6105720  71.5135650  58.0069200  56.6122560  71.0556000  59.0455620
  59.1696390  70.3536810  53.2190510  58.5450570  70.3496680  53.9443820
  59.0826510  69.4867770  52.8226480  58.0913470  71.2773440  60.1974280
  58.3885800  72.1836270  60.1166300  58.6399030  70.7892220  59.5833850
  55.8451790  75.8559680  56.0665930  55.6192710  75.6396850  56.9712550
  55.0644320  76.2888140  55.7211900  63.0749550  75.8623050  54.6656580
  62.4758440  76.5858850  54.4820200  63.6229160  75.7999830  53.8833030
  61.6814420  74.4986590  56.6959860  62.0743990  74.8158790  55.8828550
  62.0431270  73.6198470  56.8104380  50.7178590  71.0887390  58.9190060
  50.4291640  71.6590250  59.6315040  51.4624350  70.6091840  59.2821290
  50.9048820  75.0307510  50.1292780  50.8223490  75.9738270  50.2707770
  50.5531880  74.8882420  49.2505130  58.7046950  73.7646540  59.1963130
  58.7083010  73.3236490  58.3467670  59.5998070  74.0863870  59.3034950
  54.5549330  73.6473030  58.1557340  54.2149380  74.1248260  58.9124390
  53.7926650  73.1938150  57.7958440  58.7667100  74.7658620  52.1869890
  58.8879920  74.7245100  53.1355710  58.3815610  75.6282770  52.0316620
  57.7788600  77.0759760  51.5853190  57.2105500  76.6278010  50.9589100
  58.4877600  77.4352540  51.0518340  51.8695410  72.5692010  57.0722010
  51.5842330  72.2047680  57.9100630  51.8074270  71.8372470  56.4585150
  55.3236080  81.0717950  53.8579600  54.5498340  80.5315570  53.6978320
  56.0530710  80.5524560  53.5197360  66.0824060  80.0683310  59.6505990
  66.8023180  80.5638600  59.2602100  65.8805880  79.3901200  59.0059860
  61.5434000  71.4621270  53.7935380  60.7298610  70.9634440  53.7180690
  61.3495950  72.3019520  53.3771730  64.2582390  75.8340920  52.0897540
  65.1462010  76.1458150  51.9148880  64.2287480  74.9613170  51.6978120
  55.3673480  80.7398330  57.4958410  55.8852150  79.9366590  57.4415300
  54.9157500  80.6777470  58.3375240  60.2542980  82.0064610  52.7685710
  60.5958680  82.7506840  52.2729030  59.4255690  82.3195730  53.1310540
  66.5296660  77.1452760  51.5577400  66.4460380  77.5766980  50.7073840
  67.2490850  77.6051110  51.9904220  67.5583910  83.9995020  54.2859530
  66.9160070  83.3450640  54.5603250  67.1714570  84.4050110  53.5100200
  63.1370390  81.3280450  58.1331220  63.4894210  80.7308580  57.4732590
  62.2532720  81.0024680  58.3039470  59.2233670  82.0878140  55.5401630
  59.9104800  82.6347350  55.9209220  58.4366090  82.6318870  55.5751240
  51.3626070  77.7050960  51.0318710  52.2320920  77.9875760  51.3154630
  50.8716390  78.5186830  50.9167520  58.5260880  79.0924170  55.1526990
  58.9823660  79.9029420  55.3787180  58.1749090  78.7747310  55.9845480
  54.4272660  69.4361820  55.6249510  54.2987290  69.4279720  56.5734430
  53.6034680  69.7744910  55.2740520  65.9481290  82.8911480  50.8235880
  65.7218870  82.1741920  51.4160520  65.5577490  82.6423920  49.9857630
  51.7297320  86.9178340  51.5980340  52.0894960  87.5167680  50.9437610
  51.5889660  87.4638230  52.3715370  65.5297540  80.8083420  52.4850040
  65.2419240  81.2696110  53.2727920  66.3249710  80.3481190  52.7534260
  57.7465940  84.3009540  52.4154010  57.7376040  85.0339230  51.7998520
  56.8264300  84.0541120  52.5080970  53.3472580  79.5224430  53.1600770
  52.7400530  80.2623330  53.1696070  53.8221930  79.6123790  52.3338970
  66.2867400  72.6432190  53.6445220  65.6580560  72.7477860  52.9303450
  65.7919320  72.8628970  54.4339100  60.7325540  84.3637780  51.0779200
  60.8337520  84.1601770  50.1481180  59.8327280  84.1096060  51.2826980
  58.2551430  74.9218140  55.0603100  57.5467580  75.3904480  55.5016710
  58.5395910  74.2640150  55.6948290  62.2866860  71.6468800  56.4998890
  62.1634640  71.6654930  55.5508400  63.2351420  71.6947740  56.6197290
  59.3743650  86.8824100  55.7726870  59.6285150  86.8445490  54.8506240
  58.4256130  86.7557430  55.7655120  56.4586450  73.2303220  52.4353810
  57.3076980  73.6673370  52.3694000  56.0917720  73.5423480  53.2625870
  65.3796230  77.8015980  57.3485380  64.4386370  77.8166210  57.5233070
  65.6940300  77.0151940  57.7945680  55.3577870  79.4835580  50.9089340
  56.1241140  79.3716940  51.4714770  55.4352560  78.7873550  50.2566110
  54.0524630  76.9160650  51.5922230  54.1328220  75.9688160  51.7039630
  54.9444380  77.2467530  51.6982890  67.3821810  84.9724830  59.0239640
  67.5069230  85.7956000  59.4963450  68.2487370  84.7615560  58.6763790
  54.8539340  87.0656040  58.6956770  55.5901820  86.5171500  58.9665340
  55.2380260  87.9312050  58.5562760  51.7384820  83.1329610  54.5698280
  50.8124600  83.3750750  54.5603690  52.2041250  83.9603870  54.4483030
  57.9641650  86.2386350  50.5182340  58.7570260  86.5275180  50.0664130
  57.4446000  85.8078520  49.8394820  67.0171820  85.4656480  51.9419080
  66.7313330  85.0521620  51.1273260  66.8191370  86.3944190  51.8219600
  58.4819050  81.4589760  50.3824690  58.3769690  80.8442110  51.1086070
  58.3143270  80.9355650  49.5987700  61.7221780  80.5209790  50.9866680
  61.1731880  80.9679090  51.6309420  62.3441040  80.0159040  51.5104350
  57.3896900  79.4800710  52.8831980  57.8113320  79.3140580  53.7263370
  57.5147740  78.6700940  52.3887120  59.9024540  78.5038320  50.1309080
  60.4230200  77.7887340  49.7650230  60.5492940  79.1424190  50.4309590
  56.2855800  75.5533940  49.8290140  56.0844860  74.6901300  50.1903480
  56.1147850  75.4667300  48.8911740  63.7644110  70.3642170  52.3577020
  64.0446400  69.5210070  52.7136440  62.9909840  70.5965280  52.8715770
  55.0838600  72.6534560  49.8168020  55.3864500  72.6601990  48.9087170
  55.8233190  72.3032420  50.3135680  58.3023530  71.5969180  50.8024220
  57.9545530  70.9193170  50.2226670  58.5036300  71.1358690  51.6167610
  60.4672570  86.5849930  52.4210820  61.3623360  86.9234900  52.4429580
  60.4990200  85.8629340  51.7935100  54.1068730  81.9576980  50.6497820
  54.5443600  82.5006650  51.3055400  54.5916460  81.1323930  50.6594160
  51.3214530  84.7466010  58.1018080  51.6517540  83.8787070  57.8696720
  51.7505530  84.9524530  58.9323040  55.9176450  83.0775020  55.7620050
  55.6171990  82.9539990  56.6623960  55.8113940  82.2183610  55.3535780
  68.6868370  82.8571420  50.4646730  67.8561330  82.9248070  50.9353960
  68.8640200  83.7475540  50.1613590  68.1424830  79.6018900  52.9680930
  68.9043740  80.1715550  53.0740620  68.1579200  79.0346100  53.7389240
  51.6429170  78.1256830  57.1988590  50.9878010  77.8568470  56.5548290
  52.4807120  78.0161310  56.7490570  69.1484800  80.4569000  57.8122860
  69.5193630  79.6736320  57.4058830  69.7886730  81.1458100  57.6340160
  64.5919610  72.9198120  51.4207080  65.0104490  72.7329100  50.5803740
  64.2855670  72.0677170  51.7310010  68.0909340  77.8322260  55.1182880
  67.7152940  77.0650190  54.6864170  67.3612460  78.2144960  55.6057810
  50.8567250  75.3355760  53.1413920  49.9531330  75.5985960  52.9665580
  51.3407870  75.6066930  52.3613880  67.3660300  76.0579750  58.4190120
  67.8897780  75.5642400  57.7880290  67.9519720  76.1930110  59.1637690
  53.3994460  74.3921300  51.0508300  54.1086160  73.9704520  50.5655580
  52.6834400  74.4596530  50.4191650  53.0468620  70.4460630  50.0910950
  53.7696750  70.9869570  50.4092170  53.3193140  70.1724050  49.2152490
  66.8560270  75.3153100  54.3582530  67.3519390  75.0823970  55.1431410
  66.6576340  74.4764940  53.9420170  68.2847430  73.9514050  56.8920210
  68.1746710  73.7970090  57.8302480  69.0455020  73.4234990  56.6495620
  69.1737700  71.7821970  50.1326350  70.0987010  71.6503150  49.9244640
  69.1513490  71.8614790  51.0862800  69.2476190  72.5532630  52.7583060
  68.4527690  72.4877750  53.2875970  69.4519470  73.4883270  52.7468410
  66.1894610  86.5924180  56.7521450  66.7853680  86.2708750  56.0755870
  66.4472760  86.1196000  57.5434720  57.1702540  85.5507720  59.7567310
  57.6867560  84.9395080  59.2315570  57.8199920  86.0536500  60.2478320
  65.6796120  70.8829510  59.2081890  66.1204210  70.8274610  58.3603490
  65.4103710  71.7987520  59.2792070  67.5434690  70.5144750  57.2190710
  67.4823090  69.5705970  57.0721730  68.3226720  70.6224840  57.7644170
  51.8487440  86.6537110  56.1814660  51.6809480  86.0207790  56.8796550
  50.9821950  86.8596510  55.8308850  52.4715460  70.4853890  53.6846520
  53.2294820  70.5982770  53.1110550  52.0092630  71.3223090  53.6389950
  59.0129270  72.5993160  56.6748830  58.2003780  72.2250050  56.3344710
  59.5170910  71.8438240  56.9770020  63.5154250  69.2635610  57.9131900
  64.1183620  69.8355820  58.3880420  62.7747240  69.8275050  57.6905800
  66.6588850  69.6657170  53.1872180  66.8539480  70.5640620  53.4539610
  65.8718720  69.4344250  53.6805130  53.4550140  85.3470340  53.6264800
  52.9297760  85.7278370  52.9226760  53.3794720  85.9721110  54.3474510
  54.8440610  71.0117940  52.2248490  55.3733370  70.2247740  52.0956440
  55.4768930  71.6909130  52.4584020  57.0378450  70.7493080  55.2793880
  56.4081190  70.0480390  55.4464010  56.4983590  71.5097210  55.0627040
  68.2115460  86.9057880  54.9478740  68.3867650  86.2195620  54.3039660
  67.5137030  87.4304930  54.5555410  56.0543110  87.2952720  52.5014050
  56.7861930  87.0112000  51.9537940  56.3136780  87.0566000  53.3913430
  55.2157900  83.4117450  52.5060380  54.5866780  83.8802550  53.0546210
  55.3305730  82.5666670  52.9406570  62.6707620  77.4623110  38.6561580
  62.5901670  76.5477720  38.3853290  62.2572040  77.9590180  37.9501290
  64.8233090  83.6462320  39.3169980  64.3614620  82.8749560  39.6457150
  65.6358640  83.6728390  39.8222430  53.2283440  74.5123830  35.1989000
  52.3400140  74.8539800  35.0968880  53.5124630  74.3124150  34.3069830
  61.0496400  85.9320330  38.9373970  60.4307840  86.3877830  38.3668410
  61.9048180  86.0871790  38.5363670  65.0563940  72.2180140  37.7038280
  65.8773560  71.7276710  37.7463760  65.0898020  72.8077800  38.4570120
  55.5288660  70.7040260  44.8315980  55.5307100  71.2212650  44.0261880
  54.6992970  70.2270440  44.8085910  61.9159750  80.8159570  36.3305880
  61.2977020  81.2809020  35.7668600  62.4283000  81.5087050  36.7475390
  65.2925420  74.1580520  40.4765820  64.5880990  74.4465410  41.0568930
  65.6537580  74.9680630  40.1165380  55.9910610  82.3116240  44.8238660
  56.6084610  82.9867320  44.5423110  55.1303730  82.7204220  44.7326160
  51.2842950  81.5016100  33.7045510  50.9070930  81.9903200  32.9730410
  51.5416020  82.1741380  34.3352040  64.4446940  85.6199780  41.4538480
  64.4574100  85.2162070  40.5860740  63.8922160  86.3947070  41.3499910
  65.7392360  82.3416000  36.5428650  65.6288690  81.3990330  36.6678070
  65.7360610  82.7031640  37.4291410  63.8432380  80.5229620  42.7821090
  64.2601170  80.3089730  41.9474550  64.5672200  80.7802410  43.3529710
  61.2812640  77.9681320  35.8991140  60.3541920  77.9018700  36.1279610
  61.4337460  78.9061450  35.7846380  61.2681720  74.2398320  32.8958300
  60.3285390  74.4012280  32.9810760  61.5864980  74.9584000  32.3494290
  65.3109930  79.5301620  36.4026390  64.6922350  79.1921170  35.7552690
  65.2934380  78.8861380  37.1105580  56.4469410  81.9195310  47.4957880
  55.5497940  82.1435280  47.7431280  56.4722280  82.0430250  46.5469280
  63.4874630  78.7688430  33.4099140  63.9267910  77.9310860  33.2636960
  64.2003050  79.4017830  33.4963280  55.2740630  78.7908630  46.0715250
  55.1348400  79.6631430  46.4402650  54.3921990  78.4481440  45.9263190
  61.5970010  83.7084500  37.3780380  62.0365920  84.4508830  36.9635770
  61.5356900  83.9511070  38.3019340  57.0720980  84.7330330  48.2800400
  57.0436410  85.1373280  47.4128830  56.9085950  83.8040690  48.1172000
  67.0691770  70.0231240  31.7240180  66.7564430  70.1158070  32.6239250
  67.8304240  70.6012270  31.6737610  62.2885790  86.4098280  45.3059390
  62.8030460  86.3206290  46.1081820  61.4454870  86.7557980  45.5987300
  64.2640190  86.6953620  34.7343390  64.1041330  86.4056560  35.6325220
  64.0986900  85.9193750  34.1988620  56.7428570  86.4752150  36.5115010
  56.5671050  85.5587690  36.2982810  55.8884310  86.8339440  36.7512810
  63.9666320  84.2041180  33.2941390  63.2731480  84.2018470  32.6343670
  64.7089180  83.7800500  32.8635560  63.5316250  85.8303890  37.3689880
  63.9873200  85.0493270  37.6828500  63.8708770  86.5410710  37.9131060
  60.3407380  73.5994630  45.1676510  59.8786750  73.8077650  45.9796450
  59.9385490  72.7853980  44.8647180  59.1696390  70.3536810  34.4447020
  58.5450570  70.3496680  35.1700330  59.0826510  69.4867770  34.0482990
  63.0749550  75.8623050  35.8913090  62.4758440  76.5858850  35.7076710
  63.6229160  75.7999830  35.1089540  58.2851000  76.7545260  47.9582710
  58.1894600  75.8139990  47.8083110  59.1282980  76.9760330  47.5630780
  53.4161540  73.1658930  46.1116490  53.0224930  74.0134140  46.3189270
  52.7279940  72.5285300  46.3025130  59.9906590  73.2493900  49.1813230
  59.3004910  73.0566100  49.8159320  60.7338890  73.5328540  49.7137530
  50.9048820  75.0307510  31.3549290  50.8223490  75.9738270  31.4964280
  50.5531880  74.8882420  30.4761640  62.2669560  77.0892340  42.0167150
  61.5350680  77.5979150  42.3657250  61.8693900  76.2722320  41.7155930
  58.7667100  74.7658620  33.4126400  58.8879920  74.7245100  34.3612220
  58.3815610  75.6282770  33.2573130  57.7788600  77.0759760  32.8109700
  57.2105500  76.6278010  32.1845610  58.4877600  77.4352540  32.2774850
  52.8557780  80.9771780  46.6876430  52.4712570  80.3365450  47.2859390
  53.1669970  81.6807900  47.2571160  56.7954290  76.8656960  44.4869260
  56.4911360  77.7448940  44.7119620  57.7500750  76.9256750  44.5226700
  55.3236080  81.0717950  35.0836110  54.5498340  80.5315570  34.9234830
  56.0530710  80.5524560  34.7453870  66.0824060  80.0683310  40.8762500
  66.8023180  80.5638600  40.4858610  65.8805880  79.3901200  40.2316370
  61.5434000  71.4621270  35.0191890  60.7298610  70.9634440  34.9437200
  61.3495950  72.3019520  34.6028240  61.4642860  80.1392370  46.7631500
  61.3980170  79.2188040  46.5089090  60.8348000  80.2367810  47.4776140
  64.2582390  75.8340920  33.3154050  65.1462010  76.1458150  33.1405390
  64.2287480  74.9613170  32.9234630  60.2542980  82.0064610  33.9942220
  60.5958680  82.7506840  33.4985540  59.4255690  82.3195730  34.3567050
  56.0531140  78.1643940  48.5180170  55.7531280  78.3101120  47.6207990
  56.8242380  77.6049230  48.4253560  61.3959590  82.9612940  46.5135300
  61.4104130  82.0293900  46.2954210  60.6884690  83.0472700  47.1525070
  66.5296660  77.1452760  32.7833910  66.4460380  77.5766980  31.9330350
  67.2490850  77.6051110  33.2160730  67.5583910  83.9995020  35.5116040
  66.9160070  83.3450640  35.7859760  67.1714570  84.4050110  34.7356710
  63.1370390  81.3280450  39.3587730  63.4894210  80.7308580  38.6989100
  62.2532720  81.0024680  39.5295980  51.3626070  77.7050960  32.2575220
  52.2320920  77.9875760  32.5411140  50.8716390  78.5186830  32.1424030
  60.8293490  84.6030510  43.6075800  61.4735710  84.8089890  44.2849220
  61.1922930  83.8418910  43.1546650  62.1025570  82.6062860  42.3253250
  62.7447800  81.9056020  42.4385420  62.6274920  83.3861300  42.1450140
  65.9481290  82.8911480  32.0492390  65.7218870  82.1741920  32.6417030
  65.5577490  82.6423920  31.2114140  51.7297320  86.9178340  32.8236850
  52.0894960  87.5167680  32.1694120  51.5889660  87.4638230  33.5971880
  51.4266590  71.1952940  46.3112720  50.7125110  71.3949860  46.9165330
  51.8461630  70.4192510  46.6827520  65.5297540  80.8083420  33.7106550
  65.2419240  81.2696110  34.4984430  66.3249710  80.3481190  33.9790770
  51.7139180  85.1833200  47.2979250  51.8230300  84.2427940  47.1574640
  51.0619740  85.4487950  46.6492980  59.7051770  83.4549090  48.6977370
  59.3848640  82.7358330  49.2423060  59.0310130  84.1304160  48.7713430
  57.7465940  84.3009540  33.6410520  57.7376040  85.0339230  33.0255030
  56.8264300  84.0541120  33.7337480  53.3472580  79.5224430  34.3857280
  52.7400530  80.2623330  34.3952580  53.8221930  79.6123790  33.5595480
  66.2867400  72.6432190  34.8701730  65.6580560  72.7477860  34.1559960
  65.7919320  72.8628970  35.6595610  60.7325540  84.3637780  32.3035710
  60.8337520  84.1601770  31.3737690  59.8327280  84.1096060  32.5083490
  59.8807360  76.3414840  44.2852140  60.3792610  76.8160660  44.9503990
  60.0230310  75.4178360  44.4922170  59.3743650  86.8824100  36.9983380
  59.6285150  86.8445490  36.0762750  58.4256130  86.7557430  36.9911630
  56.4586450  73.2303220  33.6610320  57.3076980  73.6673370  33.5950510
  56.0917720  73.5423480  34.4882380  65.3796230  77.8015980  38.5741890
  64.4386370  77.8166210  38.7489580  65.6940300  77.0151940  39.0202190
  55.3577870  79.4835580  32.1345850  56.1241140  79.3716940  32.6971280
  55.4352560  78.7873550  31.4822620  54.0524630  76.9160650  32.8178740
  54.1328220  75.9688160  32.9296140  54.9444380  77.2467530  32.9239400
  67.3821810  84.9724830  40.2496150  67.5069230  85.7956000  40.7219960
  68.2487370  84.7615560  39.9020300  54.8539340  87.0656040  39.9213280
  55.5901820  86.5171500  40.1921850  55.2380260  87.9312050  39.7819270
  51.7384820  83.1329610  35.7954790  50.8124600  83.3750750  35.7860200
  52.2041250  83.9603870  35.6739540  53.8597620  86.2502110  49.1098860
  54.6610350  86.5714160  49.5234260  53.3449440  85.8897690  49.8318770
  57.9641650  86.2386350  31.7438850  58.7570260  86.5275180  31.2920640
  57.4446000  85.8078520  31.0651330  62.6962250  82.3581980  49.0574270
  62.0900410  82.3813580  48.3170020  62.3916360  81.6265020  49.5941520
  64.1262620  86.0862270  47.6683680  65.0784370  86.0020290  47.6183920
  63.9790840  86.7503980  48.3417470  67.0171820  85.4656480  33.1675590
  66.7313330  85.0521620  32.3529770  66.8191370  86.3944190  33.0476110
  51.5795430  78.7375570  48.0534910  52.0834450  78.1582850  48.6251140
  50.8402850  79.0215800  48.5911280  58.4819050  81.4589760  31.6081200
  58.3769690  80.8442110  32.3342580  58.3143270  80.9355650  30.8244210
  58.6333370  80.1446560  47.5870430  57.8679040  80.7131560  47.5025100
  58.8149330  79.8522770  46.6938660  61.7221780  80.5209790  32.2123190
  61.1731880  80.9679090  32.8565930  62.3441040  80.0159040  32.7360860
  53.6118510  76.8805160  48.9484980  53.6523850  76.5819030  49.8570210
  54.4664010  77.2812770  48.7892500  57.3896900  79.4800710  34.1088490
  57.8113320  79.3140580  34.9519880  57.5147740  78.6700940  33.6143630
  55.5524320  75.4597260  46.9159470  55.0220780  74.9688210  46.2882810
  56.2212390  75.8881460  46.3817400  59.9024540  78.5038320  31.3565590
  60.4230200  77.7887340  30.9906740  60.5492940  79.1424190  31.6566100
  56.0396620  72.4259630  46.9956760  55.9453490  71.8080380  46.2707630
  55.4594010  73.1525920  46.7686670  59.2117610  79.8787200  44.6496590
  59.6305720  80.7219930  44.4772830  58.2926240  80.0159240  44.4203370
  56.2855800  75.5533940  31.0546650  56.0844860  74.6901300  31.4159990
  56.1147850  75.4667300  30.1168250  57.0625030  86.1840210  45.7654320
  56.5246120  86.9086270  45.4463020  57.3158990  85.7070550  44.9751660
  58.3150280  74.1524730  47.2910250  58.9049970  73.8440580  47.9788070
  57.4970520  73.6804480  47.4470150  63.7644110  70.3642170  33.5833530
  64.0446400  69.5210070  33.9392950  62.9909840  70.5965280  34.0972280
  55.0838600  72.6534560  31.0424530  55.3864500  72.6601990  30.1343680
  55.8233190  72.3032420  31.5392190  59.9187240  87.4191420  46.0240970
  59.8445940  88.3226560  46.3313340  59.0166080  87.1003320  45.9963040
  58.3023530  71.5969180  32.0280730  57.9545530  70.9193170  31.4483180
  58.5036300  71.1358690  32.8424120  60.4672570  86.5849930  33.6467330
  61.3623360  86.9234900  33.6686090  60.4990200  85.8629340  33.0191610
  54.1068730  81.9576980  31.8754330  54.5443600  82.5006650  32.5311910
  54.5916460  81.1323930  31.8850670  51.3214530  84.7466010  39.3274590
  51.6517540  83.8787070  39.0953230  51.7505530  84.9524530  40.1579550
  51.8104740  85.6136600  42.0656220  51.3735730  85.7937400  42.8980370
  52.3782420  86.3711220  41.9237940  68.6868370  82.8571420  31.6903240
  67.8561330  82.9248070  32.1610470  68.8640200  83.7475540  31.3870100
  68.1424830  79.6018900  34.1937440  68.9043740  80.1715550  34.2997130
  68.1579200  79.0346100  34.9645750  69.1484800  80.4569000  39.0379370
  69.5193630  79.6736320  38.6315340  69.7886730  81.1458100  38.8596670
  68.1944000  79.8953270  31.3509960  68.4692840  80.8032150  31.2229180
  68.0054740  79.8315800  32.2871950  64.5919610  72.9198120  32.6463590
  65.0104490  72.7329100  31.8060250  64.2855670  72.0677170  32.9566520
  68.0909340  77.8322260  36.3439390  67.7152940  77.0650190  35.9120680
  67.3612460  78.2144960  36.8314320  52.2321100  75.4218490  46.8706860
  51.3377150  75.3885250  47.2100570  52.7718650  75.6205280  47.6358110
  50.8567250  75.3355760  34.3670430  49.9531330  75.5985960  34.1922090
  51.3407870  75.6066930  33.5870390  67.3660300  76.0579750  39.6446630
  67.8897780  75.5642400  39.0136800  67.9519720  76.1930110  40.3894200
  53.3994460  74.3921300  32.2764810  54.1086160  73.9704520  31.7912090
  52.6834400  74.4596530  31.6448160  53.0468620  70.4460630  31.3167460
  53.7696750  70.9869570  31.6348680  53.3193140  70.1724050  30.4409000
  66.8560270  75.3153100  35.5839040  67.3519390  75.0823970  36.3687920
  66.6576340  74.4764940  35.1676680  68.2847430  73.9514050  38.1176720
  68.1746710  73.7970090  39.0558990  69.0455020  73.4234990  37.8752130
  69.1737700  71.7821970  31.3582860  70.0987010  71.6503150  31.1501150
  69.1513490  71.8614790  32.3119310  69.2476190  72.5532630  33.9839570
  68.4527690  72.4877750  34.5132480  69.4519470  73.4883270  33.9724920
  66.1894610  86.5924180  37.9777960  66.7853680  86.2708750  37.3012380
  66.4472760  86.1196000  38.7691230  54.0957180  83.0242090  48.1268590
  54.0526810  82.6535000  49.0083050  54.2268190  83.9619660  48.2670410
  60.0017630  71.0434370  47.4834820  59.9406520  71.6356200  48.2330230
  60.9418010  70.9360330  47.3385080  62.6392190  70.7004430  47.1227110
  63.2532600  71.0183720  46.4608190  63.1841750  70.2153020  47.7422970
  53.1613450  69.3798690  47.2366170  53.7096440  69.1986740  46.4732280
  53.2268760  68.5892800  47.7722480  53.9345210  85.9704340  45.2466370
  53.3405530  85.8389040  45.9856410  53.9269050  85.1342480  44.7808470
  66.7406820  87.2419480  41.8075690  66.2809790  87.9935290  41.4333710
  66.1119280  86.5225950  41.7490490  53.5657440  83.3362720  44.1974410
  52.8391500  82.7168010  44.1300360  53.6266590  83.7303330  43.3272490
  59.9098040  86.4416210  41.8092800  60.1975850  86.1870510  40.9325810
  60.4221260  85.8893570  42.3998370  51.8487440  86.6537110  37.4071170
  51.6809480  86.0207790  38.1053060  50.9821950  86.8596510  37.0565360
  52.4715460  70.4853890  34.9103030  53.2294820  70.5982770  34.3367060
  52.0092630  71.3223090  34.8646460  66.6588850  69.6657170  34.4128690
  66.8539480  70.5640620  34.6796120  65.8718720  69.4344250  34.9061640
  53.4550140  85.3470340  34.8521310  52.9297760  85.7278370  34.1483270
  53.3794720  85.9721110  35.5731020  54.8440610  71.0117940  33.4505000
  55.3733370  70.2247740  33.3212950  55.4768930  71.6909130  33.6840530
  59.9770400  87.3632310  49.1761000  60.9037710  87.1276580  49.2196960
  59.9620830  88.1904310  48.6947030  68.2115460  86.9057880  36.1735250
  68.3867650  86.2195620  35.5296170  67.5137030  87.4304930  35.7811920
  57.1634010  70.0277060  48.9402880  56.8818280  70.5310660  48.1763700
  57.5453710  69.2298810  48.5745010  56.0543110  87.2952720  33.7270560
  56.7861930  87.0112000  33.1794450  56.3136780  87.0566000  34.6169940
  55.2157900  83.4117450  33.7316890  54.5866780  83.8802550  34.2802720
  55.3305730  82.5666670  34.1663080  63.7649470  69.4430640  49.5183350
  63.6514920  69.7625250  50.4134870  64.5819210  69.8443150  49.2220630
  66.5447960  86.5902170  49.0002040  67.3373280  86.0951400  48.7928000
  66.8381110  87.2692310  49.6077650  62.6707620  77.4623110  19.8818090
  62.5901670  76.5477720  19.6109800  62.2572040  77.9590180  19.1757800
  60.8025660  79.2402130  21.7627360  60.0267760  78.7602570  22.0525930
  61.4538590  78.5607780  21.5883520  54.8191490  79.5521940  22.6403120
  53.9876370  79.2970650  23.0399630  55.4272470  79.6232710  23.3761040
  64.8233090  83.6462320  20.5426490  64.3614620  82.8749560  20.8713660
  65.6358640  83.6728390  21.0478940  54.7992750  83.5862030  22.8361140
  55.1020790  82.6959770  22.6571360  55.5436340  84.1432250  22.6083390
  53.2283440  74.5123830  16.4245510  52.3400140  74.8539800  16.3225390
  53.5124630  74.3124150  15.5326340  51.1916450  77.1129480  22.3085210
  51.7632560  76.3451680  22.3088850  51.1917990  77.4118240  21.3991820
  61.0496400  85.9320330  20.1630480  60.4307840  86.3877830  19.5924920
  61.9048180  86.0871790  19.7620180  60.2434650  81.9159320  21.7697520
  60.1742930  80.9749260  21.6086650  61.0054510  82.0060730  22.3420090
  52.4341320  72.5213840  24.0954140  52.2544160  71.6239590  24.3756900
  52.0321400  73.0685710  24.7701090  61.2739820  74.7229700  21.9966450
  61.6504640  73.8501580  21.8840120  61.1759330  75.0588400  21.1056890
  55.4044830  73.0955330  17.4583890  55.5111580  73.9959060  17.7652650
  54.4937190  73.0473300  17.1678540  65.0563940  72.2180140  18.9294790
  65.8773560  71.7276710  18.9720270  65.0898020  72.8077800  19.6826630
  53.0527990  75.0174340  22.7036480  53.7338100  75.2812710  23.3223880
  52.7376040  74.1775210  23.0374490  57.2452560  76.0641700  21.7909070
  57.7530780  76.5622670  22.4314090  57.7765800  75.2876900  21.6148430
  69.3463490  74.2346890  25.4938420  68.6415660  74.6228600  24.9753530
  69.6121410  74.9297180  26.0959350  55.5288660  70.7040260  26.0572490
  55.5307100  71.2212650  25.2518390  54.6992970  70.2270440  26.0342420
  61.9159750  80.8159570  17.5562390  61.2977020  81.2809020  16.9925110
  62.4283000  81.5087050  17.9731900  56.7791510  80.3435440  24.2345990
  56.4460890  80.9704360  24.8767060  56.9558190  80.8697320  23.4547660
  65.2925420  74.1580520  21.7022330  64.5880990  74.4465410  22.2825440
  65.6537580  74.9680630  21.3421890  55.2103990  72.4150220  24.0642940
  55.5520800  73.2592270  23.7696810  54.2719800  72.5633960  24.1808280
  55.9910610  82.3116240  26.0495170  56.6084610  82.9867320  25.7679620
  55.1303730  82.7204220  25.9582670  51.2842950  81.5016100  14.9302020
  50.9070930  81.9903200  14.1986920  51.5416020  82.1741380  15.5608550
  66.9088200  83.7755650  23.9649810  66.2251720  84.4454760  23.9566480
  67.4482490  83.9736300  23.1994670  68.3612340  73.6035310  22.0931540
  67.4137250  73.6374290  22.2246970  68.6862330  74.4174260  22.4780900
  58.8931880  69.9032490  20.3887530  59.2006860  69.3479380  19.6723030
  57.9632580  70.0376950  20.2060520  64.4446940  85.6199780  22.6794990
  64.4574100  85.2162070  21.8117250  63.8922160  86.3947070  22.5756420
  65.7392360  82.3416000  17.7685160  65.6288690  81.3990330  17.8934580
  65.7360610  82.7031640  18.6547920  63.8432380  80.5229620  24.0077600
  64.2601170  80.3089730  23.1731060  64.5672200  80.7802410  24.5786220
  61.2812640  77.9681320  17.1247650  60.3541920  77.9018700  17.3536120
  61.4337460  78.9061450  17.0102890  61.2681720  74.2398320  14.1214810
  60.3285390  74.4012280  14.2067270  61.5864980  74.9584000  13.5750800
  67.7894480  78.9216840  24.0993840  66.9613110  78.9909930  23.6243970
  68.3844960  79.5071150  23.6309670  65.3109930  79.5301620  17.6282900
  64.6922350  79.1921170  16.9809200  65.2934380  78.8861380  18.3362090
  64.7536490  75.7086160  25.0448710  64.3407670  76.5339870  25.2988700
  64.0212440  75.1231200  24.8525070  56.8869280  78.4946060  19.9067380
  56.4826280  77.7823310  19.4113280  56.9732400  78.1499300  20.7955420
  57.3550980  82.1813620  22.0706590  57.0579270  81.5759090  21.3914370
  58.3050800  82.2190930  21.9595950  55.5997900  75.2689270  23.6866420
  56.1512490  75.3784610  22.9119670  56.1141410  75.6426870  24.4021650
  65.4436590  85.7545490  25.7329690  64.9667150  86.5617680  25.5402300
  64.7598380  85.1023820  25.8855900  56.4469410  81.9195310  28.7214390
  55.5497940  82.1435280  28.9687790  56.4722280  82.0430250  27.7725790
  63.4874630  78.7688430  14.6355650  63.9267910  77.9310860  14.4893470
  64.2003050  79.4017830  14.7219790  55.2740630  78.7908630  27.2971760
  55.1348400  79.6631430  27.6659160  54.3921990  78.4481440  27.1519700
  61.5970010  83.7084500  18.6036890  62.0365920  84.4508830  18.1892280
  61.5356900  83.9511070  19.5275850  57.0720980  84.7330330  29.5056910
  57.0436410  85.1373280  28.6385340  56.9085950  83.8040690  29.3428510
  67.0691770  70.0231240  12.9496690  66.7564430  70.1158070  13.8495760
  67.8304240  70.6012270  12.8994120  53.5873910  77.3891040  17.4074030
  53.4671510  78.1153130  16.7955300  53.2774800  76.6193950  16.9301940
  69.0235800  85.5157430  30.8021080  69.4995520  85.9940320  31.4810160
  69.6442960  85.4474920  30.0766580  51.2259280  80.5606180  23.2142670
  51.3039700  80.6954950  22.2698390  51.8400960  79.8522070  23.4070790
  52.4706910  82.2606370  19.6248850  52.0634990  82.4020960  18.7702450
  53.3619920  81.9766530  19.4220060  68.4269050  82.7070280  27.9621090
  68.5532110  82.4682160  27.0438270  68.4690430  81.8754820  28.4343170
  62.2885790  86.4098280  26.5315900  62.8030460  86.3206290  27.3338330
  61.4454870  86.7557980  26.8243810  64.2640190  86.6953620  15.9599900
  64.1041330  86.4056560  16.8581730  64.0986900  85.9193750  15.4245130
  56.7428570  86.4752150  17.7371520  56.5671050  85.5587690  17.5239320
  55.8884310  86.8339440  17.9769320  63.9666320  84.2041180  14.5197900
  63.2731480  84.2018470  13.8600180  64.7089180  83.7800500  14.0892070
  63.5316250  85.8303890  18.5946390  63.9873200  85.0493270  18.9085010
  63.8708770  86.5410710  19.1387570  68.2793060  74.7602740  28.9270830
  67.6637330  75.2682410  28.3986290  67.9589480  73.8601070  28.8696770
  51.2818800  81.6020350  25.7537130  51.4449840  81.1325710  24.9356500
  51.7471250  81.0943910  26.4185970  56.0537570  70.7326110  20.7897700
  55.6105720  71.5135650  20.4582220  56.6122560  71.0556000  21.4968640
  60.3407380  73.5994630  26.3933020  59.8786750  73.8077650  27.2052960
  59.9385490  72.7853980  26.0903690  65.3411890  74.8203580  27.5229680
  64.4905480  74.5209330  27.8438750  65.1813680  75.0645590  26.6113500
  62.4361600  76.3205330  29.6228470  62.7615010  75.4869080  29.2830700
  63.2241930  76.8433850  29.7706800  59.1696390  70.3536810  15.6703530
  58.5450570  70.3496680  16.3956840  59.0826510  69.4867770  15.2739500
  58.0913470  71.2773440  22.6487300  58.3885800  72.1836270  22.5679320
  58.6399030  70.7892220  22.0346870  55.8451790  75.8559680  18.5178950
  55.6192710  75.6396850  19.4225570  55.0644320  76.2888140  18.1724920
  63.0749550  75.8623050  17.1169600  62.4758440  76.5858850  16.9333220
  63.6229160  75.7999830  16.3346050  58.2851000  76.7545260  29.1839220
  58.1894600  75.8139990  29.0339620  59.1282980  76.9760330  28.7887290
  61.6814420  74.4986590  19.1472880  62.0743990  74.8158790  18.3341570
  62.0431270  73.6198470  19.2617400  53.4161540  73.1658930  27.3373000
  53.0224930  74.0134140  27.5445780  52.7279940  72.5285300  27.5281640
  59.9906590  73.2493900  30.4069740  59.3004910  73.0566100  31.0415830
  60.7338890  73.5328540  30.9394040  50.7178590  71.0887390  21.3703080
  50.4291640  71.6590250  22.0828060  51.4624350  70.6091840  21.7334310
  50.9048820  75.0307510  12.5805800  50.8223490  75.9738270  12.7220790
  50.5531880  74.8882420  11.7018150  62.2669560  77.0892340  23.2423660
  61.5350680  77.5979150  23.5913760  61.8693900  76.2722320  22.9412440
  58.7046950  73.7646540  21.6476150  58.7083010  73.3236490  20.7980690
  59.5998070  74.0863870  21.7547970  54.5549330  73.6473030  20.6070360
  54.2149380  74.1248260  21.3637410  53.7926650  73.1938150  20.2471460
  58.7667100  74.7658620  14.6382910  58.8879920  74.7245100  15.5868730
  58.3815610  75.6282770  14.4829640  62.7295470  72.5426020  22.6546600
  62.7468210  72.9934670  23.4988450  62.4811050  71.6431660  22.8680040
  57.7788600  77.0759760  14.0366210  57.2105500  76.6278010  13.4102120
  58.4877600  77.4352540  13.5031360  66.1566220  69.9558200  28.4932980
  66.4811990  69.2247860  29.0190960  66.1922730  69.6371840  27.5913970
  52.8557780  80.9771780  27.9132940  52.4712570  80.3365450  28.5115900
  53.1669970  81.6807900  28.4827670  59.0054920  77.8248320  23.3941560
  59.3725050  77.3506890  24.1402900  58.8159980  78.6989890  23.7349900
  51.8695410  72.5692010  19.5235030  51.5842330  72.2047680  20.3613650
  51.8074270  71.8372470  18.9098170  56.7954290  76.8656960  25.7125770
  56.4911360  77.7448940  25.9376130  57.7500750  76.9256750  25.7483210
  55.3236080  81.0717950  16.3092620  54.5498340  80.5315570  16.1491340
  56.0530710  80.5524560  15.9710380  66.0824060  80.0683310  22.1019010
  66.8023180  80.5638600  21.7115120  65.8805880  79.3901200  21.4572880
  61.5434000  71.4621270  16.2448400  60.7298610  70.9634440  16.1693710
  61.3495950  72.3019520  15.8284750  61.4642860  80.1392370  27.9888010
  61.3980170  79.2188040  27.7345600  60.8348000  80.2367810  28.7032650
  64.2582390  75.8340920  14.5410560  65.1462010  76.1458150  14.3661900
  64.2287480  74.9613170  14.1491140  55.3673480  80.7398330  19.9471430
  55.8852150  79.9366590  19.8928320  54.9157500  80.6777470  20.7888260
  60.2542980  82.0064610  15.2198730  60.5958680  82.7506840  14.7242050
  59.4255690  82.3195730  15.5823560  52.8518020  77.7059700  26.8597130
  52.4932960  78.3713550  27.4470470  52.5572580  76.8743250  27.2309750
  56.0531140  78.1643940  29.7436680  55.7531280  78.3101120  28.8464500
  56.8242380  77.6049230  29.6510070  61.3959590  82.9612940  27.7391810
  61.4104130  82.0293900  27.5210720  60.6884690  83.0472700  28.3781580
  66.5296660  77.1452760  14.0090420  66.4460380  77.5766980  13.1586860
  67.2490850  77.6051110  14.4417240  67.6070800  79.6020280  27.0860390
  66.8818990  80.1949060  26.8889780  68.1346260  79.5943820  26.2873760
  67.5583910  83.9995020  16.7372550  66.9160070  83.3450640  17.0116270
  67.1714570  84.4050110  15.9613220  63.1370390  81.3280450  20.5844240
  63.4894210  80.7308580  19.9245610  62.2532720  81.0024680  20.7552490
  59.2233670  82.0878140  17.9914650  59.9104800  82.6347350  18.3722240
  58.4366090  82.6318870  18.0264260  51.3626070  77.7050960  13.4831730
  52.2320920  77.9875760  13.7667650  50.8716390  78.5186830  13.3680540
  58.5260880  79.0924170  17.6040010  58.9823660  79.9029420  17.8300200
  58.1749090  78.7747310  18.4358500  60.8293490  84.6030510  24.8332310
  61.4735710  84.8089890  25.5105730  61.1922930  83.8418910  24.3803160
  54.4272660  69.4361820  18.0762530  54.2987290  69.4279720  19.0247450
  53.6034680  69.7744910  17.7253540  62.1025570  82.6062860  23.5509760
  62.7447800  81.9056020  23.6641930  62.6274920  83.3861300  23.3706650
  65.9481290  82.8911480  13.2748900  65.7218870  82.1741920  13.8673540
  65.5577490  82.6423920  12.4370650  63.8763190  83.4057760  26.7545820
  64.2119430  83.9924450  27.4323740  62.9563530  83.2750470  26.9843610
  51.7297320  86.9178340  14.0493360  52.0894960  87.5167680  13.3950630
  51.5889660  87.4638230  14.8228390  51.4266590  71.1952940  27.5369230
  50.7125110  71.3949860  28.1421840  51.8461630  70.4192510  27.9084030
  65.5297540  80.8083420  14.9363060  65.2419240  81.2696110  15.7240940
  66.3249710  80.3481190  15.2047280  51.7139180  85.1833200  28.5235760
  51.8230300  84.2427940  28.3831150  51.0619740  85.4487950  27.8749490
  59.7051770  83.4549090  29.9233880  59.3848640  82.7358330  30.4679570
  59.0310130  84.1304160  29.9969940  57.7465940  84.3009540  14.8667030
  57.7376040  85.0339230  14.2511540  56.8264300  84.0541120  14.9593990
  53.3472580  79.5224430  15.6113790  52.7400530  80.2623330  15.6209090
  53.8221930  79.6123790  14.7851990  62.9205370  73.6875250  25.2870680
  63.2886190  72.8670460  25.6150250  62.0603570  73.7477140  25.7026330
  66.2867400  72.6432190  16.0958240  65.6580560  72.7477860  15.3816470
  65.7919320  72.8628970  16.8852120  60.7325540  84.3637780  13.5292220
  60.8337520  84.1601770  12.5994200  59.8327280  84.1096060  13.7340000
  58.2551430  74.9218140  17.5116120  57.5467580  75.3904480  17.9529730
  58.5395910  74.2640150  18.1461310  59.8807360  76.3414840  25.5108650
  60.3792610  76.8160660  26.1760500  60.0230310  75.4178360  25.7178680
  62.2866860  71.6468800  18.9511910  62.1634640  71.6654930  18.0021420
  63.2351420  71.6947740  19.0710310  59.3743650  86.8824100  18.2239890
  59.6285150  86.8445490  17.3019260  58.4256130  86.7557430  18.2168140
  56.4586450  73.2303220  14.8866830  57.3076980  73.6673370  14.8207020
  56.0917720  73.5423480  15.7138890  67.0874220  72.5582800  26.3537040
  66.5847820  73.2988200  26.6930850  67.9030880  72.9466800  26.0373830
  65.3796230  77.8015980  19.7998400  64.4386370  77.8166210  19.9746090
  65.6940300  77.0151940  20.2458700  55.3577870  79.4835580  13.3602360
  56.1241140  79.3716940  13.9227790  55.4352560  78.7873550  12.7079130
  54.0524630  76.9160650  14.0435250  54.1328220  75.9688160  14.1552650
  54.9444380  77.2467530  14.1495910  67.3821810  84.9724830  21.4752660
  67.5069230  85.7956000  21.9476470  68.2487370  84.7615560  21.1276810
  54.8539340  87.0656040  21.1469790  55.5901820  86.5171500  21.4178360
  55.2380260  87.9312050  21.0075780  51.7384820  83.1329610  17.0211300
  50.8124600  83.3750750  17.0116710  52.2041250  83.9603870  16.8996050
  53.8597620  86.2502110  30.3355370  54.6610350  86.5714160  30.7490770
  53.3449440  85.8897690  31.0575280  57.9641650  86.2386350  12.9695360
  58.7570260  86.5275180  12.5177150  57.4446000  85.8078520  12.2907840
  62.6962250  82.3581980  30.2830780  62.0900410  82.3813580  29.5426530
  62.3916360  81.6265020  30.8198030  64.1262620  86.0862270  28.8940190
  65.0784370  86.0020290  28.8440430  63.9790840  86.7503980  29.5673980
  67.0171820  85.4656480  14.3932100  66.7313330  85.0521620  13.5786280
  66.8191370  86.3944190  14.2732620  51.5795430  78.7375570  29.2791420
  52.0834450  78.1582850  29.8507650  50.8402850  79.0215800  29.8167790
  58.4819050  81.4589760  12.8337710  58.3769690  80.8442110  13.5599090
  58.3143270  80.9355650  12.0500720  58.6333370  80.1446560  28.8126940
  57.8679040  80.7131560  28.7281610  58.8149330  79.8522770  27.9195170
  61.7221780  80.5209790  13.4379700  61.1731880  80.9679090  14.0822440
  62.3441040  80.0159040  13.9617370  65.7756720  81.8751890  29.3701960
  66.5166190  82.2127650  28.8669420  65.0129400  82.0443950  28.8171730
  53.6118510  76.8805160  30.1741490  53.6523850  76.5819030  31.0826720
  54.4664010  77.2812770  30.0149010  57.3896900  79.4800710  15.3345000
  57.8113320  79.3140580  16.1776390  57.5147740  78.6700940  14.8400140
  55.5524320  75.4597260  28.1415980  55.0220780  74.9688210  27.5139320
  56.2212390  75.8881460  27.6073910  59.9024540  78.5038320  12.5822100
  60.4230200  77.7887340  12.2163250  60.5492940  79.1424190  12.8822610
  64.4502380  79.9266720  27.9057170  64.8643400  80.0811800  28.7547590
  63.5153380  80.0521940  28.0682950  64.9224550  77.2662880  29.9096320
  65.5045320  76.5115200  29.8216800  65.0986320  77.7970320  29.1327800
  56.0396620  72.4259630  28.2213270  55.9453490  71.8080380  27.4964140
  55.4594010  73.1525920  27.9943180  58.8058060  70.9832870  25.2540660
  58.3575360  71.0057130  24.4086210  58.1723260  70.5851890  25.8510960
  59.2117610  79.8787200  25.8753100  59.6305720  80.7219930  25.7029340
  58.2926240  80.0159240  25.6459880  61.5481510  77.6103380  27.2590940
  61.6677720  77.0144520  27.9985780  62.4075510  77.6473070  26.8392240
  63.8869410  78.1640570  25.8353450  63.3604630  78.6883190  25.2318590
  64.2300750  78.7967960  26.4663180  56.2855800  75.5533940  12.2803160
  56.0844860  74.6901300  12.6416500  56.1147850  75.4667300  11.3424760
  57.0625030  86.1840210  26.9910830  56.5246120  86.9086270  26.6719530
  57.3158990  85.7070550  26.2008170  58.3150280  74.1524730  28.5166760
  58.9049970  73.8440580  29.2044580  57.4970520  73.6804480  28.6726660
  63.1343710  73.7690540  28.7499780  62.4459230  73.1072080  28.6849770
  63.8549730  73.3228810  29.1948240  63.7644110  70.3642170  14.8090040
  64.0446400  69.5210070  15.1649460  62.9909840  70.5965280  15.3228790
  55.0838600  72.6534560  12.2681040  55.3864500  72.6601990  11.3600190
  55.8233190  72.3032420  12.7648700  59.9187240  87.4191420  27.2497480
  59.8445940  88.3226560  27.5569850  59.0166080  87.1003320  27.2219550
  58.3023530  71.5969180  13.2537240  57.9545530  70.9193170  12.6739690
  58.5036300  71.1358690  14.0680630  60.4672570  86.5849930  14.8723840
  61.3623360  86.9234900  14.8942600  60.4990200  85.8629340  14.2448120
  54.1068730  81.9576980  13.1010840  54.5443600  82.5006650  13.7568420
  54.5916460  81.1323930  13.1107180  51.3214530  84.7466010  20.5531100
  51.6517540  83.8787070  20.3209740  51.7505530  84.9524530  21.3836060
  55.9176450  83.0775020  18.2133070  55.6171990  82.9539990  19.1136980
  55.8113940  82.2183610  17.8048800  51.8104740  85.6136600  23.2912730
  51.3735730  85.7937400  24.1236880  52.3782420  86.3711220  23.1494450
  67.4466920  85.1153600  27.5790040  66.8468910  85.1746160  26.8353960
  67.5760820  84.1758580  27.7086890  68.6868370  82.8571420  12.9159750
  67.8561330  82.9248070  13.3866980  68.8640200  83.7475540  12.6126610
  68.1424830  79.6018900  15.4193950  68.9043740  80.1715550  15.5253640
  68.1579200  79.0346100  16.1902260  51.6429170  78.1256830  19.6501610
  50.9878010  77.8568470  19.0061310  52.4807120  78.0161310  19.2003590
  69.1484800  80.4569000  20.2635880  69.5193630  79.6736320  19.8571850
  69.7886730  81.1458100  20.0853180  66.1318560  81.8405580  25.6766200
  65.3178400  82.2702740  25.9391990  66.5392760  82.4523990  25.0635250
  68.1944000  79.8953270  12.5766470  68.4692840  80.8032150  12.4485690
  68.0054740  79.8315800  13.5128460  64.5919610  72.9198120  13.8720100
  65.0104490  72.7329100  13.0316760  64.2855670  72.0677170  14.1823030
  68.0909340  77.8322260  17.5695900  67.7152940  77.0650190  17.1377190
  67.3612460  78.2144960  18.0570830  52.6805100  78.5109400  24.1904950
  53.0478140  78.4236800  25.0700970  52.1115920  77.7475950  24.0911810
  67.4808960  76.9793780  27.2035420  67.2495050  76.7506530  26.3033370
  67.7413510  77.8993330  27.1580310  52.2321100  75.4218490  28.0963370
  51.3377150  75.3885250  28.4357080  52.7718650  75.6205280  28.8614620
  65.9197030  72.2050210  29.9815120  66.7967210  72.2133610  30.3649120
  65.9317870  71.4681050  29.3707470  50.8567250  75.3355760  15.5926940
  49.9531330  75.5985960  15.4178600  51.3407870  75.6066930  14.8126900
  67.3660300  76.0579750  20.8703140  67.8897780  75.5642400  20.2393310
  67.9519720  76.1930110  21.6150710  67.5450020  76.1419620  24.3922690
  66.5952730  76.1083160  24.5067680  67.7263030  77.0519730  24.1572460
  53.3994460  74.3921300  13.5021320  54.1086160  73.9704520  13.0168600
  52.6834400  74.4596530  12.8704670  53.0468620  70.4460630  12.5423970
  53.7696750  70.9869570  12.8605190  53.3193140  70.1724050  11.6665510
  66.8560270  75.3153100  16.8095550  67.3519390  75.0823970  17.5944430
  66.6576340  74.4764940  16.3933190  52.7360810  69.6966820  22.4446590
  53.3837000  69.1464200  22.0041750  53.1562650  69.9509970  23.2662400
  68.2847430  73.9514050  19.3433230  68.1746710  73.7970090  20.2815500
  69.0455020  73.4234990  19.1008640  66.6313150  69.8908180  25.8016230
  67.2685370  70.5042320  26.1675420  66.7788040  69.9268840  24.8565460
  69.1737700  71.7821970  12.5839370  70.0987010  71.6503150  12.3757660
  69.1513490  71.8614790  13.5375820  69.2476190  72.5532630  15.2096080
  68.4527690  72.4877750  15.7388990  69.4519470  73.4883270  15.1981430
  66.1894610  86.5924180  19.2034470  66.7853680  86.2708750  18.5268890
  66.4472760  86.1196000  19.9947740  52.4892810  69.8522490  25.1871910
  52.1407630  70.3086310  25.9530090  52.1580510  68.9579620  25.2694340
  54.0957180  83.0242090  29.3525100  54.0526810  82.6535000  30.2339560
  54.2268190  83.9619660  29.4926920  57.7963210  84.5801680  24.9534820
  57.5554570  84.8476240  24.0665340  58.7365850  84.7507410  25.0085680
  60.0017630  71.0434370  28.7091330  59.9406520  71.6356200  29.4586740
  60.9418010  70.9360330  28.5641590  62.6392190  70.7004430  28.3483620
  63.2532600  71.0183720  27.6864700  63.1841750  70.2153020  28.9679480
  69.0567370  86.5996060  25.7545460  68.5625650  86.9964930  25.0372590
  68.4480660  85.9745270  26.1482740  53.9345210  85.9704340  26.4722880
  53.3405530  85.8389040  27.2112920  53.9269050  85.1342480  26.0064980
  63.3800230  69.2636570  24.6752910  62.5060070  69.5971680  24.4725840
  63.2710980  68.7909750  25.5004780  64.2872210  71.4707440  26.0594630
  63.9585570  70.6559200  25.6796360  65.2354510  71.4277250  25.9360320
  66.7406820  87.2419480  23.0332200  66.2809790  87.9935290  22.6590220
  66.1119280  86.5225950  22.9747000  53.5657440  83.3362720  25.4230920
  52.8391500  82.7168010  25.3556870  53.6266590  83.7303330  24.5529000
  57.1702540  85.5507720  22.2080330  57.6867560  84.9395080  21.6828590
  57.8199920  86.0536500  22.6991340  59.9098040  86.4416210  23.0349310
  60.1975850  86.1870510  22.1582320  60.4221260  85.8893570  23.6254880
  61.1275050  70.1806410  23.6145820  60.3446840  70.6551910  23.8942580
  60.8337980  69.2761240  23.5059000  65.6796120  70.8829510  21.6594910
  66.1204210  70.8274610  20.8116510  65.4103710  71.7987520  21.7305090
  67.5434690  70.5144750  19.6703730  67.4823090  69.5705970  19.5234750
  68.3226720  70.6224840  20.2157190  51.8487440  86.6537110  18.6327680
  51.6809480  86.0207790  19.3309570  50.9821950  86.8596510  18.2821870
  52.4715460  70.4853890  16.1359540  53.2294820  70.5982770  15.5623570
  52.0092630  71.3223090  16.0902970  59.0129270  72.5993160  19.1261850
  58.2003780  72.2250050  18.7857730  59.5170910  71.8438240  19.4283040
  63.5154250  69.2635610  20.3644920  64.1183620  69.8355820  20.8393440
  62.7747240  69.8275050  20.1418820  66.6588850  69.6657170  15.6385200
  66.8539480  70.5640620  15.9052630  65.8718720  69.4344250  16.1318150
  53.4550140  85.3470340  16.0777820  52.9297760  85.7278370  15.3739780
  53.3794720  85.9721110  16.7987530  54.8440610  71.0117940  14.6761510
  55.3733370  70.2247740  14.5469460  55.4768930  71.6909130  14.9097040
  57.0378450  70.7493080  17.7306900  56.4081190  70.0480390  17.8977030
  56.4983590  71.5097210  17.5140060  59.9770400  87.3632310  30.4017510
  60.9037710  87.1276580  30.4453470  59.9620830  88.1904310  29.9203540
  68.2115460  86.9057880  17.3991760  68.3867650  86.2195620  16.7552680
  67.5137030  87.4304930  17.0068430  57.1634010  70.0277060  30.1659390
  56.8818280  70.5310660  29.4020210  57.5453710  69.2298810  29.8001520
  56.0543110  87.2952720  14.9527070  56.7861930  87.0112000  14.4050960
  56.3136780  87.0566000  15.8426450  55.2157900  83.4117450  14.9573400
  54.5866780  83.8802550  15.5059230  55.3305730  82.5666670  15.3919590
  63.7649470  69.4430640  30.7439860  63.6514920  69.7625250  31.6391380
  64.5819210  69.8443150  30.4477140  66.5447960  86.5902170  30.2258550
  67.3373280  86.0951400  30.0184510  66.8381110  87.2692310  30.8334160
  60.8025660  79.2402130   2.9883870  60.0267760  78.7602570   3.2782440
  61.4538590  78.5607780   2.8140030  54.8191490  79.5521940   3.8659630
  53.9876370  79.2970650   4.2656140  55.4272470  79.6232710   4.6017550
  64.8233090  83.6462320   1.7683000  64.3614620  82.8749560   2.0970170
  65.6358640  83.6728390   2.2735450  54.7992750  83.5862030   4.0617650
  55.1020790  82.6959770   3.8827870  55.5436340  84.1432250   3.8339900
  51.1916450  77.1129480   3.5341720  51.7632560  76.3451680   3.5345360
  51.1917990  77.4118240   2.6248330  60.2434650  81.9159320   2.9954030
  60.1742930  80.9749260   2.8343160  61.0054510  82.0060730   3.5676600
  52.4341320  72.5213840   5.3210650  52.2544160  71.6239590   5.6013410
  52.0321400  73.0685710   5.9957600  61.2739820  74.7229700   3.2222960
  61.6504640  73.8501580   3.1096630  61.1759330  75.0588400   2.3313400
  53.0527990  75.0174340   3.9292990  53.7338100  75.2812710   4.5480390
  52.7376040  74.1775210   4.2631000  57.2452560  76.0641700   3.0165580
  57.7530780  76.5622670   3.6570600  57.7765800  75.2876900   2.8404940
  69.3463490  74.2346890   6.7194930  68.6415660  74.6228600   6.2010040
  69.6121410  74.9297180   7.3215860  55.5288660  70.7040260   7.2829000
  55.5307100  71.2212650   6.4774900  54.6992970  70.2270440   7.2598930
  56.7791510  80.3435440   5.4602500  56.4460890  80.9704360   6.1023570
  56.9558190  80.8697320   4.6804170  65.2925420  74.1580520   2.9278840
  64.5880990  74.4465410   3.5081950  65.6537580  74.9680630   2.5678400
  55.2103990  72.4150220   5.2899450  55.5520800  73.2592270   4.9953320
  54.2719800  72.5633960   5.4064790  55.9910610  82.3116240   7.2751680
  56.6084610  82.9867320   6.9936130  55.1303730  82.7204220   7.1839180
  66.9088200  83.7755650   5.1906320  66.2251720  84.4454760   5.1822990
  67.4482490  83.9736300   4.4251180  68.3612340  73.6035310   3.3188050
  67.4137250  73.6374290   3.4503480  68.6862330  74.4174260   3.7037410
  64.4446940  85.6199780   3.9051500  64.4574100  85.2162070   3.0373760
  63.8922160  86.3947070   3.8012930  63.8432380  80.5229620   5.2334110
  64.2601170  80.3089730   4.3987570  64.5672200  80.7802410   5.8042730
  67.7894480  78.9216840   5.3250350  66.9613110  78.9909930   4.8500480
  68.3844960  79.5071150   4.8566180  64.7536490  75.7086160   6.2705220
  64.3407670  76.5339870   6.5245210  64.0212440  75.1231200   6.0781580
  57.3550980  82.1813620   3.2963100  57.0579270  81.5759090   2.6170880
  58.3050800  82.2190930   3.1852460  55.5997900  75.2689270   4.9122930
  56.1512490  75.3784610   4.1376180  56.1141410  75.6426870   5.6278160
  65.4436590  85.7545490   6.9586200  64.9667150  86.5617680   6.7658810
  64.7598380  85.1023820   7.1112410  56.4469410  81.9195310   9.9470900
  55.5497940  82.1435280  10.1944300  56.4722280  82.0430250   8.9982300
  55.2740630  78.7908630   8.5228270  55.1348400  79.6631430   8.8915670
  54.3921990  78.4481440   8.3776210  57.0720980  84.7330330  10.7313420
  57.0436410  85.1373280   9.8641850  56.9085950  83.8040690  10.5685020
  69.0235800  85.5157430  12.0277590  69.4995520  85.9940320  12.7066670
  69.6442960  85.4474920  11.3023090  51.2259280  80.5606180   4.4399180
  51.3039700  80.6954950   3.4954900  51.8400960  79.8522070   4.6327300
  68.4269050  82.7070280   9.1877600  68.5532110  82.4682160   8.2694780
  68.4690430  81.8754820   9.6599680  62.2885790  86.4098280   7.7572410
  62.8030460  86.3206290   8.5594840  61.4454870  86.7557980   8.0500320
  68.2793060  74.7602740  10.1527340  67.6637330  75.2682410   9.6242800
  67.9589480  73.8601070  10.0953280  51.2818800  81.6020350   6.9793640
  51.4449840  81.1325710   6.1613010  51.7471250  81.0943910   7.6442480
  56.0537570  70.7326110   2.0154210  55.6105720  71.5135650   1.6838730
  56.6122560  71.0556000   2.7225150  60.3407380  73.5994630   7.6189530
  59.8786750  73.8077650   8.4309470  59.9385490  72.7853980   7.3160200
  65.3411890  74.8203580   8.7486190  64.4905480  74.5209330   9.0695260
  65.1813680  75.0645590   7.8370010  62.4361600  76.3205330  10.8484980
  62.7615010  75.4869080  10.5087210  63.2241930  76.8433850  10.9963310
  58.0913470  71.2773440   3.8743810  58.3885800  72.1836270   3.7935830
  58.6399030  70.7892220   3.2603380  58.2851000  76.7545260  10.4095730
  58.1894600  75.8139990  10.2596130  59.1282980  76.9760330  10.0143800
  53.4161540  73.1658930   8.5629510  53.0224930  74.0134140   8.7702290
  52.7279940  72.5285300   8.7538150  59.9906590  73.2493900  11.6326250
  59.3004910  73.0566100  12.2672340  60.7338890  73.5328540  12.1650550
  50.7178590  71.0887390   2.5959590  50.4291640  71.6590250   3.3084570
  51.4624350  70.6091840   2.9590820  62.2669560  77.0892340   4.4680170
  61.5350680  77.5979150   4.8170270  61.8693900  76.2722320   4.1668950
  58.7046950  73.7646540   2.8732660  58.7083010  73.3236490   2.0237200
  59.5998070  74.0863870   2.9804480  54.5549330  73.6473030   1.8326870
  54.2149380  74.1248260   2.5893920  53.7926650  73.1938150   1.4727970
  62.7295470  72.5426020   3.8803110  62.7468210  72.9934670   4.7244960
  62.4811050  71.6431660   4.0936550  66.1566220  69.9558200   9.7189490
  66.4811990  69.2247860  10.2447470  66.1922730  69.6371840   8.8170480
  52.8557780  80.9771780   9.1389450  52.4712570  80.3365450   9.7372410
  53.1669970  81.6807900   9.7084180  59.0054920  77.8248320   4.6198070
  59.3725050  77.3506890   5.3659410  58.8159980  78.6989890   4.9606410
  56.7954290  76.8656960   6.9382280  56.4911360  77.7448940   7.1632640
  57.7500750  76.9256750   6.9739720  66.0824060  80.0683310   3.3275520
  66.8023180  80.5638600   2.9371630  65.8805880  79.3901200   2.6829390
  61.4642860  80.1392370   9.2144520  61.3980170  79.2188040   8.9602110
  60.8348000  80.2367810   9.9289160  52.8518020  77.7059700   8.0853640
  52.4932960  78.3713550   8.6726980  52.5572580  76.8743250   8.4566260
  56.0531140  78.1643940  10.9693190  55.7531280  78.3101120  10.0721010
  56.8242380  77.6049230  10.8766580  61.3959590  82.9612940   8.9648320
  61.4104130  82.0293900   8.7467230  60.6884690  83.0472700   9.6038090
  67.6070800  79.6020280   8.3116900  66.8818990  80.1949060   8.1146290
  68.1346260  79.5943820   7.5130270  60.8293490  84.6030510   6.0588820
  61.4735710  84.8089890   6.7362240  61.1922930  83.8418910   5.6059670
  62.1025570  82.6062860   4.7766270  62.7447800  81.9056020   4.8898440
  62.6274920  83.3861300   4.5963160  63.8763190  83.4057760   7.9802330
  64.2119430  83.9924450   8.6580250  62.9563530  83.2750470   8.2100120
  51.4266590  71.1952940   8.7625740  50.7125110  71.3949860   9.3678350
  51.8461630  70.4192510   9.1340540  51.7139180  85.1833200   9.7492270
  51.8230300  84.2427940   9.6087660  51.0619740  85.4487950   9.1006000
  59.7051770  83.4549090  11.1490390  59.3848640  82.7358330  11.6936080
  59.0310130  84.1304160  11.2226450  62.9205370  73.6875250   6.5127190
  63.2886190  72.8670460   6.8406760  62.0603570  73.7477140   6.9282840
  59.8807360  76.3414840   6.7365160  60.3792610  76.8160660   7.4017010
  60.0230310  75.4178360   6.9435190  67.0874220  72.5582800   7.5793550
  66.5847820  73.2988200   7.9187360  67.9030880  72.9466800   7.2630340
  67.3821810  84.9724830   2.7009170  67.5069230  85.7956000   3.1732980
  68.2487370  84.7615560   2.3533320  54.8539340  87.0656040   2.3726300
  55.5901820  86.5171500   2.6434870  55.2380260  87.9312050   2.2332290
  53.8597620  86.2502110  11.5611880  54.6610350  86.5714160  11.9747280
  53.3449440  85.8897690  12.2831790  62.6962250  82.3581980  11.5087290
  62.0900410  82.3813580  10.7683040  62.3916360  81.6265020  12.0454540
  64.1262620  86.0862270  10.1196700  65.0784370  86.0020290  10.0696940
  63.9790840  86.7503980  10.7930490  51.5795430  78.7375570  10.5047930
  52.0834450  78.1582850  11.0764160  50.8402850  79.0215800  11.0424300
  58.6333370  80.1446560  10.0383450  57.8679040  80.7131560   9.9538120
  58.8149330  79.8522770   9.1451680  65.7756720  81.8751890  10.5958470
  66.5166190  82.2127650  10.0925930  65.0129400  82.0443950  10.0428240
  53.6118510  76.8805160  11.3998000  53.6523850  76.5819030  12.3083230
  54.4664010  77.2812770  11.2405520  55.5524320  75.4597260   9.3672490
  55.0220780  74.9688210   8.7395830  56.2212390  75.8881460   8.8330420
  64.4502380  79.9266720   9.1313680  64.8643400  80.0811800   9.9804100
  63.5153380  80.0521940   9.2939460  64.9224550  77.2662880  11.1352830
  65.5045320  76.5115200  11.0473310  65.0986320  77.7970320  10.3584310
  56.0396620  72.4259630   9.4469780  55.9453490  71.8080380   8.7220650
  55.4594010  73.1525920   9.2199690  58.8058060  70.9832870   6.4797170
  58.3575360  71.0057130   5.6342720  58.1723260  70.5851890   7.0767470
  59.2117610  79.8787200   7.1009610  59.6305720  80.7219930   6.9285850
  58.2926240  80.0159240   6.8716390  61.5481510  77.6103380   8.4847450
  61.6677720  77.0144520   9.2242290  62.4075510  77.6473070   8.0648750
  63.8869410  78.1640570   7.0609960  63.3604630  78.6883190   6.4575100
  64.2300750  78.7967960   7.6919690  57.0625030  86.1840210   8.2167340
  56.5246120  86.9086270   7.8976040  57.3158990  85.7070550   7.4264680
  58.3150280  74.1524730   9.7423270  58.9049970  73.8440580  10.4301090
  57.4970520  73.6804480   9.8983170  63.1343710  73.7690540   9.9756290
  62.4459230  73.1072080   9.9106280  63.8549730  73.3228810  10.4204750
  59.9187240  87.4191420   8.4753990  59.8445940  88.3226560   8.7826360
  59.0166080  87.1003320   8.4476060  51.3214530  84.7466010   1.7787610
  51.6517540  83.8787070   1.5466250  51.7505530  84.9524530   2.6092570
  51.8104740  85.6136600   4.5169240  51.3735730  85.7937400   5.3493390
  52.3782420  86.3711220   4.3750960  67.4466920  85.1153600   8.8046550
  66.8468910  85.1746160   8.0610470  67.5760820  84.1758580   8.9343400
  66.1318560  81.8405580   6.9022710  65.3178400  82.2702740   7.1648500
  66.5392760  82.4523990   6.2891760  52.6805100  78.5109400   5.4161460
  53.0478140  78.4236800   6.2957480  52.1115920  77.7475950   5.3168320
  67.4808960  76.9793780   8.4291930  67.2495050  76.7506530   7.5289880
  67.7413510  77.8993330   8.3836820  52.2321100  75.4218490   9.3219880
  51.3377150  75.3885250   9.6613590  52.7718650  75.6205280  10.0871130
  65.9197030  72.2050210  11.2071630  66.7967210  72.2133610  11.5905630
  65.9317870  71.4681050  10.5963980  67.3660300  76.0579750   2.0959650
  67.8897780  75.5642400   1.4649820  67.9519720  76.1930110   2.8407220
  67.5450020  76.1419620   5.6179200  66.5952730  76.1083160   5.7324190
  67.7263030  77.0519730   5.3828970  52.7360810  69.6966820   3.6703100
  53.3837000  69.1464200   3.2298260  53.1562650  69.9509970   4.4918910
  66.6313150  69.8908180   7.0272740  67.2685370  70.5042320   7.3931930
  66.7788040  69.9268840   6.0821970  52.4892810  69.8522490   6.4128420
  52.1407630  70.3086310   7.1786600  52.1580510  68.9579620   6.4950850
  54.0957180  83.0242090  10.5781610  54.0526810  82.6535000  11.4596070
  54.2268190  83.9619660  10.7183430  57.7963210  84.5801680   6.1791330
  57.5554570  84.8476240   5.2921850  58.7365850  84.7507410   6.2342190
  60.0017630  71.0434370   9.9347840  59.9406520  71.6356200  10.6843250
  60.9418010  70.9360330   9.7898100  62.6392190  70.7004430   9.5740130
  63.2532600  71.0183720   8.9121210  63.1841750  70.2153020  10.1935990
  69.0567370  86.5996060   6.9801970  68.5625650  86.9964930   6.2629100
  68.4480660  85.9745270   7.3739250  53.1613450  69.3798690   9.6879190
  53.7096440  69.1986740   8.9245300  53.2268760  68.5892800  10.2235500
  53.9345210  85.9704340   7.6979390  53.3405530  85.8389040   8.4369430
  53.9269050  85.1342480   7.2321490  63.3800230  69.2636570   5.9009420
  62.5060070  69.5971680   5.6982350  63.2710980  68.7909750   6.7261290
  64.2872210  71.4707440   7.2851140  63.9585570  70.6559200   6.9052870
  65.2354510  71.4277250   7.1616830  66.7406820  87.2419480   4.2588710
  66.2809790  87.9935290   3.8846730  66.1119280  86.5225950   4.2003510
  53.5657440  83.3362720   6.6487430  52.8391500  82.7168010   6.5813380
  53.6266590  83.7303330   5.7785510  57.1702540  85.5507720   3.4336840
  57.6867560  84.9395080   2.9085100  57.8199920  86.0536500   3.9247850
  59.9098040  86.4416210   4.2605820  60.1975850  86.1870510   3.3838830
  60.4221260  85.8893570   4.8511390  61.1275050  70.1806410   4.8402330
  60.3446840  70.6551910   5.1199090  60.8337980  69.2761240   4.7315510
  65.6796120  70.8829510   2.8851420  66.1204210  70.8274610   2.0373020
  65.4103710  71.7987520   2.9561600  59.9770400  87.3632310  11.6274020
  60.9037710  87.1276580  11.6709980  59.9620830  88.1904310  11.1460050
  57.1634010  70.0277060  11.3915900  56.8818280  70.5310660  10.6276720
  57.5453710  69.2298810  11.0258030  63.7649470  69.4430640  11.9696370
  63.6514920  69.7625250  12.8647890  64.5819210  69.8443150  11.6733650
  66.5447960  86.5902170  11.4515060  67.3373280  86.0951400  11.2441020
  66.8381110  87.2692310  12.0590670  62.6707620  58.6879620  57.4305070
  62.5901670  57.7734230  57.1596780  62.2572040  59.1846690  56.7244780
  60.8025660  60.4658640  59.3114340  60.0267760  59.9859080  59.6012910
  61.4538590  59.7864290  59.1370500  64.8233090  64.8718830  58.0913470
  64.3614620  64.1006070  58.4200640  65.6358640  64.8984900  58.5965920
  53.2283440  55.7380340  53.9732490  52.3400140  56.0796310  53.8712370
  53.5124630  55.5380660  53.0813320  51.1916450  58.3385990  59.8572190
  51.7632560  57.5708190  59.8575830  51.1917990  58.6374750  58.9478800
  61.0496400  67.1576840  57.7117460  60.4307840  67.6134340  57.1411900
  61.9048180  67.3128300  57.3107160  60.2434650  63.1415830  59.3184500
  60.1742930  62.2005770  59.1573630  61.0054510  63.2317240  59.8907070
  61.2739820  55.9486210  59.5453430  61.6504640  55.0758090  59.4327100
  61.1759330  56.2844910  58.6543870  55.4044830  54.3211840  55.0070870
  55.5111580  55.2215570  55.3139630  54.4937190  54.2729810  54.7165520
  65.0563940  53.4436650  56.4781770  65.8773560  52.9533220  56.5207250
  65.0898020  54.0334310  57.2313610  57.2452560  57.2898210  59.3396050
  57.7530780  57.7879180  59.9801070  57.7765800  56.5133410  59.1635410
  61.9159750  62.0416080  55.1049370  61.2977020  62.5065530  54.5412090
  62.4283000  62.7343560  55.5218880  65.2925420  55.3837030  59.2509310
  64.5880990  55.6721920  59.8312420  65.6537580  56.1937140  58.8908870
  51.2842950  62.7272610  52.4789000  50.9070930  63.2159710  51.7473900
  51.5416020  63.3997890  53.1095530  68.3612340  54.8291820  59.6418520
  67.4137250  54.8630800  59.7733950  68.6862330  55.6430770  60.0267880
  58.8931880  51.1289000  57.9374510  59.2006860  50.5735890  57.2210010
  57.9632580  51.2633460  57.7547500  64.4446940  66.8456290  60.2281970
  64.4574100  66.4418580  59.3604230  63.8922160  67.6203580  60.1243400
  65.7392360  63.5672510  55.3172140  65.6288690  62.6246840  55.4421560
  65.7360610  63.9288150  56.2034900  61.2812640  59.1937830  54.6734630
  60.3541920  59.1275210  54.9023100  61.4337460  60.1317960  54.5589870
  61.2681720  55.4654830  51.6701790  60.3285390  55.6268790  51.7554250
  61.5864980  56.1840510  51.1237780  65.3109930  60.7558130  55.1769880
  64.6922350  60.4177680  54.5296180  65.2934380  60.1117890  55.8849070
  56.8869280  59.7202570  57.4554360  56.4826280  59.0079820  56.9600260
  56.9732400  59.3755810  58.3442400  57.3550980  63.4070130  59.6193570
  57.0579270  62.8015600  58.9401350  58.3050800  63.4447440  59.5082930
  63.4874630  59.9944940  52.1842630  63.9267910  59.1567370  52.0380450
  64.2003050  60.6274340  52.2706770  61.5970010  64.9341010  56.1523870
  62.0365920  65.6765340  55.7379260  61.5356900  65.1767580  57.0762830
  67.0691770  51.2487750  50.4983670  66.7564430  51.3414580  51.3982740
  67.8304240  51.8268780  50.4481100  53.5873910  58.6147550  54.9561010
  53.4671510  59.3409640  54.3442280  53.2774800  57.8450460  54.4788920
  52.4706910  63.4862880  57.1735830  52.0634990  63.6277470  56.3189430
  53.3619920  63.2023040  56.9707040  64.2640190  67.9210130  53.5086880
  64.1041330  67.6313070  54.4068710  64.0986900  67.1450260  52.9732110
  56.7428570  67.7008660  55.2858500  56.5671050  66.7844200  55.0726300
  55.8884310  68.0595950  55.5256300  63.9666320  65.4297690  52.0684880
  63.2731480  65.4274980  51.4087160  64.7089180  65.0057010  51.6379050
  63.5316250  67.0560400  56.1433370  63.9873200  66.2749780  56.4571990
  63.8708770  67.7667220  56.6874550  56.0537570  51.9582620  58.3384680
  55.6105720  52.7392160  58.0069200  56.6122560  52.2812510  59.0455620
  59.1696390  51.5793320  53.2190510  58.5450570  51.5753190  53.9443820
  59.0826510  50.7124280  52.8226480  58.0913470  52.5029950  60.1974280
  58.3885800  53.4092780  60.1166300  58.6399030  52.0148730  59.5833850
  55.8451790  57.0816190  56.0665930  55.6192710  56.8653360  56.9712550
  55.0644320  57.5144650  55.7211900  63.0749550  57.0879560  54.6656580
  62.4758440  57.8115360  54.4820200  63.6229160  57.0256340  53.8833030
  61.6814420  55.7243100  56.6959860  62.0743990  56.0415300  55.8828550
  62.0431270  54.8454980  56.8104380  50.7178590  52.3143900  58.9190060
  50.4291640  52.8846760  59.6315040  51.4624350  51.8348350  59.2821290
  50.9048820  56.2564020  50.1292780  50.8223490  57.1994780  50.2707770
  50.5531880  56.1138930  49.2505130  58.7046950  54.9903050  59.1963130
  58.7083010  54.5493000  58.3467670  59.5998070  55.3120380  59.3034950
  54.5549330  54.8729540  58.1557340  54.2149380  55.3504770  58.9124390
  53.7926650  54.4194660  57.7958440  58.7667100  55.9915130  52.1869890
  58.8879920  55.9501610  53.1355710  58.3815610  56.8539280  52.0316620
  57.7788600  58.3016270  51.5853190  57.2105500  57.8534520  50.9589100
  58.4877600  58.6609050  51.0518340  51.8695410  53.7948520  57.0722010
  51.5842330  53.4304190  57.9100630  51.8074270  53.0628980  56.4585150
  55.3236080  62.2974460  53.8579600  54.5498340  61.7572080  53.6978320
  56.0530710  61.7781070  53.5197360  66.0824060  61.2939820  59.6505990
  66.8023180  61.7895110  59.2602100  65.8805880  60.6157710  59.0059860
  61.5434000  52.6877780  53.7935380  60.7298610  52.1890950  53.7180690
  61.3495950  53.5276030  53.3771730  64.2582390  57.0597430  52.0897540
  65.1462010  57.3714660  51.9148880  64.2287480  56.1869680  51.6978120
  55.3673480  61.9654840  57.4958410  55.8852150  61.1623100  57.4415300
  54.9157500  61.9033980  58.3375240  60.2542980  63.2321120  52.7685710
  60.5958680  63.9763350  52.2729030  59.4255690  63.5452240  53.1310540
  66.5296660  58.3709270  51.5577400  66.4460380  58.8023490  50.7073840
  67.2490850  58.8307620  51.9904220  67.5583910  65.2251530  54.2859530
  66.9160070  64.5707150  54.5603250  67.1714570  65.6306620  53.5100200
  63.1370390  62.5536960  58.1331220  63.4894210  61.9565090  57.4732590
  62.2532720  62.2281190  58.3039470  59.2233670  63.3134650  55.5401630
  59.9104800  63.8603860  55.9209220  58.4366090  63.8575380  55.5751240
  51.3626070  58.9307470  51.0318710  52.2320920  59.2132270  51.3154630
  50.8716390  59.7443340  50.9167520  58.5260880  60.3180680  55.1526990
  58.9823660  61.1285930  55.3787180  58.1749090  60.0003820  55.9845480
  54.4272660  50.6618330  55.6249510  54.2987290  50.6536230  56.5734430
  53.6034680  51.0001420  55.2740520  65.9481290  64.1167990  50.8235880
  65.7218870  63.3998430  51.4160520  65.5577490  63.8680430  49.9857630
  51.7297320  68.1434850  51.5980340  52.0894960  68.7424190  50.9437610
  51.5889660  68.6894740  52.3715370  65.5297540  62.0339930  52.4850040
  65.2419240  62.4952620  53.2727920  66.3249710  61.5737700  52.7534260
  57.7465940  65.5266050  52.4154010  57.7376040  66.2595740  51.7998520
  56.8264300  65.2797630  52.5080970  53.3472580  60.7480940  53.1600770
  52.7400530  61.4879840  53.1696070  53.8221930  60.8380300  52.3338970
  66.2867400  53.8688700  53.6445220  65.6580560  53.9734370  52.9303450
  65.7919320  54.0885480  54.4339100  60.7325540  65.5894290  51.0779200
  60.8337520  65.3858280  50.1481180  59.8327280  65.3352570  51.2826980
  58.2551430  56.1474650  55.0603100  57.5467580  56.6160990  55.5016710
  58.5395910  55.4896660  55.6948290  62.2866860  52.8725310  56.4998890
  62.1634640  52.8911440  55.5508400  63.2351420  52.9204250  56.6197290
  59.3743650  68.1080610  55.7726870  59.6285150  68.0702000  54.8506240
  58.4256130  67.9813940  55.7655120  56.4586450  54.4559730  52.4353810
  57.3076980  54.8929880  52.3694000  56.0917720  54.7679990  53.2625870
  65.3796230  59.0272490  57.3485380  64.4386370  59.0422720  57.5233070
  65.6940300  58.2408450  57.7945680  55.3577870  60.7092090  50.9089340
  56.1241140  60.5973450  51.4714770  55.4352560  60.0130060  50.2566110
  54.0524630  58.1417160  51.5922230  54.1328220  57.1944670  51.7039630
  54.9444380  58.4724040  51.6982890  67.3821810  66.1981340  59.0239640
  67.5069230  67.0212510  59.4963450  68.2487370  65.9872070  58.6763790
  54.8539340  68.2912550  58.6956770  55.5901820  67.7428010  58.9665340
  55.2380260  69.1568560  58.5562760  51.7384820  64.3586120  54.5698280
  50.8124600  64.6007260  54.5603690  52.2041250  65.1860380  54.4483030
  57.9641650  67.4642860  50.5182340  58.7570260  67.7531690  50.0664130
  57.4446000  67.0335030  49.8394820  67.0171820  66.6912990  51.9419080
  66.7313330  66.2778130  51.1273260  66.8191370  67.6200700  51.8219600
  58.4819050  62.6846270  50.3824690  58.3769690  62.0698620  51.1086070
  58.3143270  62.1612160  49.5987700  61.7221780  61.7466300  50.9866680
  61.1731880  62.1935600  51.6309420  62.3441040  61.2415550  51.5104350
  57.3896900  60.7057220  52.8831980  57.8113320  60.5397090  53.7263370
  57.5147740  59.8957450  52.3887120  59.9024540  59.7294830  50.1309080
  60.4230200  59.0143850  49.7650230  60.5492940  60.3680700  50.4309590
  56.2855800  56.7790450  49.8290140  56.0844860  55.9157810  50.1903480
  56.1147850  56.6923810  48.8911740  63.7644110  51.5898680  52.3577020
  64.0446400  50.7466580  52.7136440  62.9909840  51.8221790  52.8715770
  55.0838600  53.8791070  49.8168020  55.3864500  53.8858500  48.9087170
  55.8233190  53.5288930  50.3135680  58.3023530  52.8225690  50.8024220
  57.9545530  52.1449680  50.2226670  58.5036300  52.3615200  51.6167610
  60.4672570  67.8106440  52.4210820  61.3623360  68.1491410  52.4429580
  60.4990200  67.0885850  51.7935100  54.1068730  63.1833490  50.6497820
  54.5443600  63.7263160  51.3055400  54.5916460  62.3580440  50.6594160
  51.3214530  65.9722520  58.1018080  51.6517540  65.1043580  57.8696720
  51.7505530  66.1781040  58.9323040  55.9176450  64.3031530  55.7620050
  55.6171990  64.1796500  56.6623960  55.8113940  63.4440120  55.3535780
  68.6868370  64.0827930  50.4646730  67.8561330  64.1504580  50.9353960
  68.8640200  64.9732050  50.1613590  68.1424830  60.8275410  52.9680930
  68.9043740  61.3972060  53.0740620  68.1579200  60.2602610  53.7389240
  51.6429170  59.3513340  57.1988590  50.9878010  59.0824980  56.5548290
  52.4807120  59.2417820  56.7490570  69.1484800  61.6825510  57.8122860
  69.5193630  60.8992830  57.4058830  69.7886730  62.3714610  57.6340160
  68.1944000  61.1209780  50.1253450  68.4692840  62.0288660  49.9972670
  68.0054740  61.0572310  51.0615440  64.5919610  54.1454630  51.4207080
  65.0104490  53.9585610  50.5803740  64.2855670  53.2933680  51.7310010
  68.0909340  59.0578770  55.1182880  67.7152940  58.2906700  54.6864170
  67.3612460  59.4401470  55.6057810  50.8567250  56.5612270  53.1413920
  49.9531330  56.8242470  52.9665580  51.3407870  56.8323440  52.3613880
  67.3660300  57.2836260  58.4190120  67.8897780  56.7898910  57.7880290
  67.9519720  57.4186620  59.1637690  53.3994460  55.6177810  51.0508300
  54.1086160  55.1961030  50.5655580  52.6834400  55.6853040  50.4191650
  53.0468620  51.6717140  50.0910950  53.7696750  52.2126080  50.4092170
  53.3193140  51.3980560  49.2152490  66.8560270  56.5409610  54.3582530
  67.3519390  56.3080480  55.1431410  66.6576340  55.7021450  53.9420170
  68.2847430  55.1770560  56.8920210  68.1746710  55.0226600  57.8302480
  69.0455020  54.6491500  56.6495620  69.1737700  53.0078480  50.1326350
  70.0987010  52.8759660  49.9244640  69.1513490  53.0871300  51.0862800
  69.2476190  53.7789140  52.7583060  68.4527690  53.7134260  53.2875970
  69.4519470  54.7139780  52.7468410  66.1894610  67.8180690  56.7521450
  66.7853680  67.4965260  56.0755870  66.4472760  67.3452510  57.5434720
  57.1702540  66.7764230  59.7567310  57.6867560  66.1651590  59.2315570
  57.8199920  67.2793010  60.2478320  65.6796120  52.1086020  59.2081890
  66.1204210  52.0531120  58.3603490  65.4103710  53.0244030  59.2792070
  67.5434690  51.7401260  57.2190710  67.4823090  50.7962480  57.0721730
  68.3226720  51.8481350  57.7644170  51.8487440  67.8793620  56.1814660
  51.6809480  67.2464300  56.8796550  50.9821950  68.0853020  55.8308850
  52.4715460  51.7110400  53.6846520  53.2294820  51.8239280  53.1110550
  52.0092630  52.5479600  53.6389950  59.0129270  53.8249670  56.6748830
  58.2003780  53.4506560  56.3344710  59.5170910  53.0694750  56.9770020
  63.5154250  50.4892120  57.9131900  64.1183620  51.0612330  58.3880420
  62.7747240  51.0531560  57.6905800  66.6588850  50.8913680  53.1872180
  66.8539480  51.7897130  53.4539610  65.8718720  50.6600760  53.6805130
  53.4550140  66.5726850  53.6264800  52.9297760  66.9534880  52.9226760
  53.3794720  67.1977620  54.3474510  54.8440610  52.2374450  52.2248490
  55.3733370  51.4504250  52.0956440  55.4768930  52.9165640  52.4584020
  57.0378450  51.9749590  55.2793880  56.4081190  51.2736900  55.4464010
  56.4983590  52.7353720  55.0627040  68.2115460  68.1314390  54.9478740
  68.3867650  67.4452130  54.3039660  67.5137030  68.6561440  54.5555410
  56.0543110  68.5209230  52.5014050  56.7861930  68.2368510  51.9537940
  56.3136780  68.2822510  53.3913430  55.2157900  64.6373960  52.5060380
  54.5866780  65.1059060  53.0546210  55.3305730  63.7923180  52.9406570
  69.3463490  55.4603400  44.2681910  68.6415660  55.8485110  43.7497020
  69.6121410  56.1553690  44.8702840  61.9159750  62.0416080  36.3305880
  61.2977020  62.5065530  35.7668600  62.4283000  62.7343560  36.7475390
  61.2681720  55.4654830  32.8958300  60.3285390  55.6268790  32.9810760
  61.5864980  56.1840510  32.3494290  56.4469410  63.1451820  47.4957880
  55.5497940  63.3691790  47.7431280  56.4722280  63.2686760  46.5469280
  57.0720980  65.9586840  48.2800400  57.0436410  66.3629790  47.4128830
  56.9085950  65.0297200  48.1172000  67.0691770  51.2487750  31.7240180
  66.7564430  51.3414580  32.6239250  67.8304240  51.8268780  31.6737610
  69.0235800  66.7413940  49.5764570  69.4995520  67.2196830  50.2553650
  69.6442960  66.6731430  48.8510070  68.4269050  63.9326790  46.7364580
  68.5532110  63.6938670  45.8181760  68.4690430  63.1011330  47.2086660
  64.2640190  67.9210130  34.7343390  64.1041330  67.6313070  35.6325220
  64.0986900  67.1450260  34.1988620  63.5316250  67.0560400  37.3689880
  63.9873200  66.2749780  37.6828500  63.8708770  67.7667220  37.9131060
  68.2793060  55.9859250  47.7014320  67.6637330  56.4938920  47.1729780
  67.9589480  55.0857580  47.6440260  65.3411890  56.0460090  46.2973170
  64.4905480  55.7465840  46.6182240  65.1813680  56.2902100  45.3856990
  62.4361600  57.5461840  48.3971960  62.7615010  56.7125590  48.0574190
  63.2241930  58.0690360  48.5450290  59.9906590  54.4750410  49.1813230
  59.3004910  54.2822610  49.8159320  60.7338890  54.7585050  49.7137530
  58.7667100  55.9915130  33.4126400  58.8879920  55.9501610  34.3612220
  58.3815610  56.8539280  33.2573130  57.7788600  58.3016270  32.8109700
  57.2105500  57.8534520  32.1845610  58.4877600  58.6609050  32.2774850
  66.1566220  51.1814710  47.2676470  66.4811990  50.4504370  47.7934450
  66.1922730  50.8628350  46.3657460  52.8557780  62.2028290  46.6876430
  52.4712570  61.5621960  47.2859390  53.1669970  62.9064410  47.2571160
  61.4642860  61.3648880  46.7631500  61.3980170  60.4444550  46.5089090
  60.8348000  61.4624320  47.4776140  56.0531140  59.3900450  48.5180170
  55.7531280  59.5357630  47.6207990  56.8242380  58.8305740  48.4253560
  61.3959590  64.1869450  46.5135300  61.4104130  63.2550410  46.2954210
  60.6884690  64.2729210  47.1525070  59.7051770  64.6805600  48.6977370
  59.3848640  63.9614840  49.2423060  59.0310130  65.3560670  48.7713430
  67.0874220  53.7839310  45.1280530  66.5847820  54.5244710  45.4674340
  67.9030880  54.1723310  44.8117320  53.8597620  67.4758620  49.1098860
  54.6610350  67.7970670  49.5234260  53.3449440  67.1154200  49.8318770
  62.6962250  63.5838490  49.0574270  62.0900410  63.6070090  48.3170020
  62.3916360  62.8521530  49.5941520  64.1262620  67.3118780  47.6683680
  65.0784370  67.2276800  47.6183920  63.9790840  67.9760490  48.3417470
  67.0171820  66.6912990  33.1675590  66.7313330  66.2778130  32.3529770
  66.8191370  67.6200700  33.0476110  51.5795430  59.9632080  48.0534910
  52.0834450  59.3839360  48.6251140  50.8402850  60.2472310  48.5911280
  58.4819050  62.6846270  31.6081200  58.3769690  62.0698620  32.3342580
  58.3143270  62.1612160  30.8244210  58.6333370  61.3703070  47.5870430
  57.8679040  61.9388070  47.5025100  58.8149330  61.0779280  46.6938660
  65.7756720  63.1008400  48.1445450  66.5166190  63.4384160  47.6412910
  65.0129400  63.2700460  47.5915220  53.6118510  58.1061670  48.9484980
  53.6523850  57.8075540  49.8570210  54.4664010  58.5069280  48.7892500
  59.9024540  59.7294830  31.3565590  60.4230200  59.0143850  30.9906740
  60.5492940  60.3680700  31.6566100  64.9224550  58.4919390  48.6839810
  65.5045320  57.7371710  48.5960290  65.0986320  59.0226830  47.9071290
  56.2855800  56.7790450  31.0546650  56.0844860  55.9157810  31.4159990
  56.1147850  56.6923810  30.1168250  58.3150280  55.3781240  47.2910250
  58.9049970  55.0697090  47.9788070  57.4970520  54.9060990  47.4470150
  63.1343710  54.9947050  47.5243270  62.4459230  54.3328590  47.4593260
  63.8549730  54.5485320  47.9691730  63.7644110  51.5898680  33.5833530
  64.0446400  50.7466580  33.9392950  62.9909840  51.8221790  34.0972280
  59.9187240  68.6447930  46.0240970  59.8445940  69.5483070  46.3313340
  59.0166080  68.3259830  45.9963040  60.4672570  67.8106440  33.6467330
  61.3623360  68.1491410  33.6686090  60.4990200  67.0885850  33.0191610
  67.4466920  66.3410110  46.3533530  66.8468910  66.4002670  45.6097450
  67.5760820  65.4015090  46.4830380  64.5919610  54.1454630  32.6463590
  65.0104490  53.9585610  31.8060250  64.2855670  53.2933680  32.9566520
  67.4808960  58.2050290  45.9778910  67.2495050  57.9763040  45.0776860
  67.7413510  59.1249840  45.9323800  52.2321100  56.6475000  46.8706860
  51.3377150  56.6141760  47.2100570  52.7718650  56.8461790  47.6358110
  65.9197030  53.4306720  48.7558610  66.7967210  53.4390120  49.1392610
  65.9317870  52.6937560  48.1450960  54.0957180  64.2498600  48.1268590
  54.0526810  63.8791510  49.0083050  54.2268190  65.1876170  48.2670410
  62.6392190  51.9260940  47.1227110  63.2532600  52.2440230  46.4608190
  63.1841750  51.4409530  47.7422970  53.9345210  67.1960850  45.2466370
  53.3405530  67.0645550  45.9856410  53.9269050  66.3598990  44.7808470
  59.9770400  68.5888820  49.1761000  60.9037710  68.3533090  49.2196960
  59.9620830  69.4160820  48.6947030  68.2115460  68.1314390  36.1735250
  68.3867650  67.4452130  35.5296170  67.5137030  68.6561440  35.7811920
  57.1634010  51.2533570  48.9402880  56.8818280  51.7567170  48.1763700
  57.5453710  50.4555320  48.5745010  63.7649470  50.6687150  49.5183350
  63.6514920  50.9881760  50.4134870  64.5819210  51.0699660  49.2220630
  66.5447960  67.8158680  49.0002040  67.3373280  67.3207910  48.7928000
  66.8381110  68.4948820  49.6077650  64.8233090  64.8718830  20.5426490
  64.3614620  64.1006070  20.8713660  65.6358640  64.8984900  21.0478940
  53.2283440  55.7380340  16.4245510  52.3400140  56.0796310  16.3225390
  53.5124630  55.5380660  15.5326340  61.0496400  67.1576840  20.1630480
  60.4307840  67.6134340  19.5924920  61.9048180  67.3128300  19.7620180
  61.9159750  62.0416080  17.5562390  61.2977020  62.5065530  16.9925110
  62.4283000  62.7343560  17.9731900  51.2842950  62.7272610  14.9302020
  50.9070930  63.2159710  14.1986920  51.5416020  63.3997890  15.5608550
  66.9088200  65.0012160  23.9649810  66.2251720  65.6711270  23.9566480
  67.4482490  65.1992810  23.1994670  64.4446940  66.8456290  22.6794990
  64.4574100  66.4418580  21.8117250  63.8922160  67.6203580  22.5756420
  65.7392360  63.5672510  17.7685160  65.6288690  62.6246840  17.8934580
  65.7360610  63.9288150  18.6547920  61.2812640  59.1937830  17.1247650
  60.3541920  59.1275210  17.3536120  61.4337460  60.1317960  17.0102890
  61.2681720  55.4654830  14.1214810  60.3285390  55.6268790  14.2067270
  61.5864980  56.1840510  13.5750800  65.3109930  60.7558130  17.6282900
  64.6922350  60.4177680  16.9809200  65.2934380  60.1117890  18.3362090
  65.4436590  66.9802000  25.7329690  64.9667150  67.7874190  25.5402300
  64.7598380  66.3280330  25.8855900  63.4874630  59.9944940  14.6355650
  63.9267910  59.1567370  14.4893470  64.2003050  60.6274340  14.7219790
  61.5970010  64.9341010  18.6036890  62.0365920  65.6765340  18.1892280
  61.5356900  65.1767580  19.5275850  67.0691770  51.2487750  12.9496690
  66.7564430  51.3414580  13.8495760  67.8304240  51.8268780  12.8994120
  69.0235800  66.7413940  30.8021080  69.4995520  67.2196830  31.4810160
  69.6442960  66.6731430  30.0766580  52.4706910  63.4862880  19.6248850
  52.0634990  63.6277470  18.7702450  53.3619920  63.2023040  19.4220060
  62.2885790  67.6354790  26.5315900  62.8030460  67.5462800  27.3338330
  61.4454870  67.9814490  26.8243810  64.2640190  67.9210130  15.9599900
  64.1041330  67.6313070  16.8581730  64.0986900  67.1450260  15.4245130
  56.7428570  67.7008660  17.7371520  56.5671050  66.7844200  17.5239320
  55.8884310  68.0595950  17.9769320  63.9666320  65.4297690  14.5197900
  63.2731480  65.4274980  13.8600180  64.7089180  65.0057010  14.0892070
  63.5316250  67.0560400  18.5946390  63.9873200  66.2749780  18.9085010
  63.8708770  67.7667220  19.1387570  59.1696390  51.5793320  15.6703530
  58.5450570  51.5753190  16.3956840  59.0826510  50.7124280  15.2739500
  63.0749550  57.0879560  17.1169600  62.4758440  57.8115360  16.9333220
  63.6229160  57.0256340  16.3346050  58.2851000  57.9801770  29.1839220
  58.1894600  57.0396500  29.0339620  59.1282980  58.2016840  28.7887290
  59.9906590  54.4750410  30.4069740  59.3004910  54.2822610  31.0415830
  60.7338890  54.7585050  30.9394040  50.9048820  56.2564020  12.5805800
  50.8223490  57.1994780  12.7220790  50.5531880  56.1138930  11.7018150
  58.7667100  55.9915130  14.6382910  58.8879920  55.9501610  15.5868730
  58.3815610  56.8539280  14.4829640  57.7788600  58.3016270  14.0366210
  57.2105500  57.8534520  13.4102120  58.4877600  58.6609050  13.5031360
  55.3236080  62.2974460  16.3092620  54.5498340  61.7572080  16.1491340
  56.0530710  61.7781070  15.9710380  61.5434000  52.6877780  16.2448400
  60.7298610  52.1890950  16.1693710  61.3495950  53.5276030  15.8284750
  64.2582390  57.0597430  14.5410560  65.1462010  57.3714660  14.3661900
  64.2287480  56.1869680  14.1491140  60.2542980  63.2321120  15.2198730
  60.5958680  63.9763350  14.7242050  59.4255690  63.5452240  15.5823560
  52.8518020  58.9316210  26.8597130  52.4932960  59.5970060  27.4470470
  52.5572580  58.0999760  27.2309750  56.0531140  59.3900450  29.7436680
  55.7531280  59.5357630  28.8464500  56.8242380  58.8305740  29.6510070
  66.5296660  58.3709270  14.0090420  66.4460380  58.8023490  13.1586860
  67.2490850  58.8307620  14.4417240  67.5583910  65.2251530  16.7372550
  66.9160070  64.5707150  17.0116270  67.1714570  65.6306620  15.9613220
  59.2233670  63.3134650  17.9914650  59.9104800  63.8603860  18.3722240
  58.4366090  63.8575380  18.0264260  51.3626070  58.9307470  13.4831730
  52.2320920  59.2132270  13.7667650  50.8716390  59.7443340  13.3680540
  65.9481290  64.1167990  13.2748900  65.7218870  63.3998430  13.8673540
  65.5577490  63.8680430  12.4370650  51.7297320  68.1434850  14.0493360
  52.0894960  68.7424190  13.3950630  51.5889660  68.6894740  14.8228390
  65.5297540  62.0339930  14.9363060  65.2419240  62.4952620  15.7240940
  66.3249710  61.5737700  15.2047280  57.7465940  65.5266050  14.8667030
  57.7376040  66.2595740  14.2511540  56.8264300  65.2797630  14.9593990
  53.3472580  60.7480940  15.6113790  52.7400530  61.4879840  15.6209090
  53.8221930  60.8380300  14.7851990  66.2867400  53.8688700  16.0958240
  65.6580560  53.9734370  15.3816470  65.7919320  54.0885480  16.8852120
  60.7325540  65.5894290  13.5292220  60.8337520  65.3858280  12.5994200
  59.8327280  65.3352570  13.7340000  62.2866860  52.8725310  18.9511910
  62.1634640  52.8911440  18.0021420  63.2351420  52.9204250  19.0710310
  59.3743650  68.1080610  18.2239890  59.6285150  68.0702000  17.3019260
  58.4256130  67.9813940  18.2168140  56.4586450  54.4559730  14.8866830
  57.3076980  54.8929880  14.8207020  56.0917720  54.7679990  15.7138890
  65.3796230  59.0272490  19.7998400  64.4386370  59.0422720  19.9746090
  65.6940300  58.2408450  20.2458700  55.3577870  60.7092090  13.3602360
  56.1241140  60.5973450  13.9227790  55.4352560  60.0130060  12.7079130
  54.0524630  58.1417160  14.0435250  54.1328220  57.1944670  14.1552650
  54.9444380  58.4724040  14.1495910  67.3821810  66.1981340  21.4752660
  67.5069230  67.0212510  21.9476470  68.2487370  65.9872070  21.1276810
  54.8539340  68.2912550  21.1469790  55.5901820  67.7428010  21.4178360
  55.2380260  69.1568560  21.0075780  51.7384820  64.3586120  17.0211300
  50.8124600  64.6007260  17.0116710  52.2041250  65.1860380  16.8996050
  57.9641650  67.4642860  12.9695360  58.7570260  67.7531690  12.5177150
  57.4446000  67.0335030  12.2907840  67.0171820  66.6912990  14.3932100
  66.7313330  66.2778130  13.5786280  66.8191370  67.6200700  14.2732620
  51.5795430  59.9632080  29.2791420  52.0834450  59.3839360  29.8507650
  50.8402850  60.2472310  29.8167790  58.4819050  62.6846270  12.8337710
  58.3769690  62.0698620  13.5599090  58.3143270  62.1612160  12.0500720
  61.7221780  61.7466300  13.4379700  61.1731880  62.1935600  14.0822440
  62.3441040  61.2415550  13.9617370  53.6118510  58.1061670  30.1741490
  53.6523850  57.8075540  31.0826720  54.4664010  58.5069280  30.0149010
  57.3896900  60.7057220  15.3345000  57.8113320  60.5397090  16.1776390
  57.5147740  59.8957450  14.8400140  59.9024540  59.7294830  12.5822100
  60.4230200  59.0143850  12.2163250  60.5492940  60.3680700  12.8822610
  56.2855800  56.7790450  12.2803160  56.0844860  55.9157810  12.6416500
  56.1147850  56.6923810  11.3424760  57.0625030  67.4096720  26.9910830
  56.5246120  68.1342780  26.6719530  57.3158990  66.9327060  26.2008170
  63.7644110  51.5898680  14.8090040  64.0446400  50.7466580  15.1649460
  62.9909840  51.8221790  15.3228790  55.0838600  53.8791070  12.2681040
  55.3864500  53.8858500  11.3600190  55.8233190  53.5288930  12.7648700
  59.9187240  68.6447930  27.2497480  59.8445940  69.5483070  27.5569850
  59.0166080  68.3259830  27.2219550  58.3023530  52.8225690  13.2537240
  57.9545530  52.1449680  12.6739690  58.5036300  52.3615200  14.0680630
  60.4672570  67.8106440  14.8723840  61.3623360  68.1491410  14.8942600
  60.4990200  67.0885850  14.2448120  54.1068730  63.1833490  13.1010840
  54.5443600  63.7263160  13.7568420  54.5916460  62.3580440  13.1107180
  51.3214530  65.9722520  20.5531100  51.6517540  65.1043580  20.3209740
  51.7505530  66.1781040  21.3836060  55.9176450  64.3031530  18.2133070
  55.6171990  64.1796500  19.1136980  55.8113940  63.4440120  17.8048800
  51.8104740  66.8393110  23.2912730  51.3735730  67.0193910  24.1236880
  52.3782420  67.5967730  23.1494450  67.4466920  66.3410110  27.5790040
  66.8468910  66.4002670  26.8353960  67.5760820  65.4015090  27.7086890
  68.6868370  64.0827930  12.9159750  67.8561330  64.1504580  13.3866980
  68.8640200  64.9732050  12.6126610  68.1424830  60.8275410  15.4193950
  68.9043740  61.3972060  15.5253640  68.1579200  60.2602610  16.1902260
  69.1484800  61.6825510  20.2635880  69.5193630  60.8992830  19.8571850
  69.7886730  62.3714610  20.0853180  68.1944000  61.1209780  12.5766470
  68.4692840  62.0288660  12.4485690  68.0054740  61.0572310  13.5128460
  64.5919610  54.1454630  13.8720100  65.0104490  53.9585610  13.0316760
  64.2855670  53.2933680  14.1823030  68.0909340  59.0578770  17.5695900
  67.7152940  58.2906700  17.1377190  67.3612460  59.4401470  18.0570830
  52.2321100  56.6475000  28.0963370  51.3377150  56.6141760  28.4357080
  52.7718650  56.8461790  28.8614620  65.9197030  53.4306720  29.9815120
  66.7967210  53.4390120  30.3649120  65.9317870  52.6937560  29.3707470
  50.8567250  56.5612270  15.5926940  49.9531330  56.8242470  15.4178600
  51.3407870  56.8323440  14.8126900  53.3994460  55.6177810  13.5021320
  54.1086160  55.1961030  13.0168600  52.6834400  55.6853040  12.8704670
  53.0468620  51.6717140  12.5423970  53.7696750  52.2126080  12.8605190
  53.3193140  51.3980560  11.6665510  66.8560270  56.5409610  16.8095550
  67.3519390  56.3080480  17.5944430  66.6576340  55.7021450  16.3933190
  69.1737700  53.0078480  12.5839370  70.0987010  52.8759660  12.3757660
  69.1513490  53.0871300  13.5375820  69.2476190  53.7789140  15.2096080
  68.4527690  53.7134260  15.7388990  69.4519470  54.7139780  15.1981430
  66.1894610  67.8180690  19.2034470  66.7853680  67.4965260  18.5268890
  66.4472760  67.3452510  19.9947740  57.7963210  65.8058190  24.9534820
  57.5554570  66.0732750  24.0665340  58.7365850  65.9763920  25.0085680
  69.0567370  67.8252570  25.7545460  68.5625650  68.2221440  25.0372590
  68.4480660  67.2001780  26.1482740  66.7406820  68.4675990  23.0332200
  66.2809790  69.2191800  22.6590220  66.1119280  67.7482460  22.9747000
  57.1702540  66.7764230  22.2080330  57.6867560  66.1651590  21.6828590
  57.8199920  67.2793010  22.6991340  59.9098040  67.6672720  23.0349310
  60.1975850  67.4127020  22.1582320  60.4221260  67.1150080  23.6254880
  51.8487440  67.8793620  18.6327680  51.6809480  67.2464300  19.3309570
  50.9821950  68.0853020  18.2821870  66.6588850  50.8913680  15.6385200
  66.8539480  51.7897130  15.9052630  65.8718720  50.6600760  16.1318150
  53.4550140  66.5726850  16.0777820  52.9297760  66.9534880  15.3739780
  53.3794720  67.1977620  16.7987530  54.8440610  52.2374450  14.6761510
  55.3733370  51.4504250  14.5469460  55.4768930  52.9165640  14.9097040
  57.0378450  51.9749590  17.7306900  56.4081190  51.2736900  17.8977030
  56.4983590  52.7353720  17.5140060  59.9770400  68.5888820  30.4017510
  60.9037710  68.3533090  30.4453470  59.9620830  69.4160820  29.9203540
  68.2115460  68.1314390  17.3991760  68.3867650  67.4452130  16.7552680
  67.5137030  68.6561440  17.0068430  56.0543110  68.5209230  14.9527070
  56.7861930  68.2368510  14.4050960  56.3136780  68.2822510  15.8426450
  55.2157900  64.6373960  14.9573400  54.5866780  65.1059060  15.5059230
  55.3305730  63.7923180  15.3919590  63.7649470  50.6687150  30.7439860
  63.6514920  50.9881760  31.6391380  64.5819210  51.0699660  30.4477140
  66.5447960  67.8158680  30.2258550  67.3373280  67.3207910  30.0184510
  66.8381110  68.4948820  30.8334160  60.8025660  60.4658640   2.9883870
  60.0267760  59.9859080   3.2782440  61.4538590  59.7864290   2.8140030
  54.8191490  60.7778450   3.8659630  53.9876370  60.5227160   4.2656140
  55.4272470  60.8489220   4.6017550  64.8233090  64.8718830   1.7683000
  64.3614620  64.1006070   2.0970170  65.6358640  64.8984900   2.2735450
  54.7992750  64.8118540   4.0617650  55.1020790  63.9216280   3.8827870
  55.5436340  65.3688760   3.8339900  51.1916450  58.3385990   3.5341720
  51.7632560  57.5708190   3.5345360  51.1917990  58.6374750   2.6248330
  60.2434650  63.1415830   2.9954030  60.1742930  62.2005770   2.8343160
  61.0054510  63.2317240   3.5676600  52.4341320  53.7470350   5.3210650
  52.2544160  52.8496100   5.6013410  52.0321400  54.2942220   5.9957600
  61.2739820  55.9486210   3.2222960  61.6504640  55.0758090   3.1096630
  61.1759330  56.2844910   2.3313400  53.0527990  56.2430850   3.9292990
  53.7338100  56.5069220   4.5480390  52.7376040  55.4031720   4.2631000
  57.2452560  57.2898210   3.0165580  57.7530780  57.7879180   3.6570600
  57.7765800  56.5133410   2.8404940  69.3463490  55.4603400   6.7194930
  68.6415660  55.8485110   6.2010040  69.6121410  56.1553690   7.3215860
  55.5288660  51.9296770   7.2829000  55.5307100  52.4469160   6.4774900
  54.6992970  51.4526950   7.2598930  56.7791510  61.5691950   5.4602500
  56.4460890  62.1960870   6.1023570  56.9558190  62.0953830   4.6804170
  65.2925420  55.3837030   2.9278840  64.5880990  55.6721920   3.5081950
  65.6537580  56.1937140   2.5678400  55.2103990  53.6406730   5.2899450
  55.5520800  54.4848780   4.9953320  54.2719800  53.7890470   5.4064790
  55.9910610  63.5372750   7.2751680  56.6084610  64.2123830   6.9936130
  55.1303730  63.9460730   7.1839180  66.9088200  65.0012160   5.1906320
  66.2251720  65.6711270   5.1822990  67.4482490  65.1992810   4.4251180
  68.3612340  54.8291820   3.3188050  67.4137250  54.8630800   3.4503480
  68.6862330  55.6430770   3.7037410  64.4446940  66.8456290   3.9051500
  64.4574100  66.4418580   3.0373760  63.8922160  67.6203580   3.8012930
  63.8432380  61.7486130   5.2334110  64.2601170  61.5346240   4.3987570
  64.5672200  62.0058920   5.8042730  67.7894480  60.1473350   5.3250350
  66.9613110  60.2166440   4.8500480  68.3844960  60.7327660   4.8566180
  64.7536490  56.9342670   6.2705220  64.3407670  57.7596380   6.5245210
  64.0212440  56.3487710   6.0781580  57.3550980  63.4070130   3.2963100
  57.0579270  62.8015600   2.6170880  58.3050800  63.4447440   3.1852460
  55.5997900  56.4945780   4.9122930  56.1512490  56.6041120   4.1376180
  56.1141410  56.8683380   5.6278160  65.4436590  66.9802000   6.9586200
  64.9667150  67.7874190   6.7658810  64.7598380  66.3280330   7.1112410
  56.4469410  63.1451820   9.9470900  55.5497940  63.3691790  10.1944300
  56.4722280  63.2686760   8.9982300  55.2740630  60.0165140   8.5228270
  55.1348400  60.8887940   8.8915670  54.3921990  59.6737950   8.3776210
  57.0720980  65.9586840  10.7313420  57.0436410  66.3629790   9.8641850
  56.9085950  65.0297200  10.5685020  69.0235800  66.7413940  12.0277590
  69.4995520  67.2196830  12.7066670  69.6442960  66.6731430  11.3023090
  51.2259280  61.7862690   4.4399180  51.3039700  61.9211460   3.4954900
  51.8400960  61.0778580   4.6327300  68.4269050  63.9326790   9.1877600
  68.5532110  63.6938670   8.2694780  68.4690430  63.1011330   9.6599680
  62.2885790  67.6354790   7.7572410  62.8030460  67.5462800   8.5594840
  61.4454870  67.9814490   8.0500320  68.2793060  55.9859250  10.1527340
  67.6637330  56.4938920   9.6242800  67.9589480  55.0857580  10.0953280
  51.2818800  62.8276860   6.9793640  51.4449840  62.3582220   6.1613010
  51.7471250  62.3200420   7.6442480  56.0537570  51.9582620   2.0154210
  55.6105720  52.7392160   1.6838730  56.6122560  52.2812510   2.7225150
  60.3407380  54.8251140   7.6189530  59.8786750  55.0334160   8.4309470
  59.9385490  54.0110490   7.3160200  65.3411890  56.0460090   8.7486190
  64.4905480  55.7465840   9.0695260  65.1813680  56.2902100   7.8370010
  62.4361600  57.5461840  10.8484980  62.7615010  56.7125590  10.5087210
  63.2241930  58.0690360  10.9963310  58.0913470  52.5029950   3.8743810
  58.3885800  53.4092780   3.7935830  58.6399030  52.0148730   3.2603380
  58.2851000  57.9801770  10.4095730  58.1894600  57.0396500  10.2596130
  59.1282980  58.2016840  10.0143800  53.4161540  54.3915440   8.5629510
  53.0224930  55.2390650   8.7702290  52.7279940  53.7541810   8.7538150
  59.9906590  54.4750410  11.6326250  59.3004910  54.2822610  12.2672340
  60.7338890  54.7585050  12.1650550  50.7178590  52.3143900   2.5959590
  50.4291640  52.8846760   3.3084570  51.4624350  51.8348350   2.9590820
  62.2669560  58.3148850   4.4680170  61.5350680  58.8235660   4.8170270
  61.8693900  57.4978830   4.1668950  58.7046950  54.9903050   2.8732660
  58.7083010  54.5493000   2.0237200  59.5998070  55.3120380   2.9804480
  54.5549330  54.8729540   1.8326870  54.2149380  55.3504770   2.5893920
  53.7926650  54.4194660   1.4727970  62.7295470  53.7682530   3.8803110
  62.7468210  54.2191180   4.7244960  62.4811050  52.8688170   4.0936550
  66.1566220  51.1814710   9.7189490  66.4811990  50.4504370  10.2447470
  66.1922730  50.8628350   8.8170480  52.8557780  62.2028290   9.1389450
  52.4712570  61.5621960   9.7372410  53.1669970  62.9064410   9.7084180
  59.0054920  59.0504830   4.6198070  59.3725050  58.5763400   5.3659410
  58.8159980  59.9246400   4.9606410  56.7954290  58.0913470   6.9382280
  56.4911360  58.9705450   7.1632640  57.7500750  58.1513260   6.9739720
  66.0824060  61.2939820   3.3275520  66.8023180  61.7895110   2.9371630
  65.8805880  60.6157710   2.6829390  61.4642860  61.3648880   9.2144520
  61.3980170  60.4444550   8.9602110  60.8348000  61.4624320   9.9289160
  52.8518020  58.9316210   8.0853640  52.4932960  59.5970060   8.6726980
  52.5572580  58.0999760   8.4566260  56.0531140  59.3900450  10.9693190
  55.7531280  59.5357630  10.0721010  56.8242380  58.8305740  10.8766580
  61.3959590  64.1869450   8.9648320  61.4104130  63.2550410   8.7467230
  60.6884690  64.2729210   9.6038090  67.6070800  60.8276790   8.3116900
  66.8818990  61.4205570   8.1146290  68.1346260  60.8200330   7.5130270
  60.8293490  65.8287020   6.0588820  61.4735710  66.0346400   6.7362240
  61.1922930  65.0675420   5.6059670  62.1025570  63.8319370   4.7766270
  62.7447800  63.1312530   4.8898440  62.6274920  64.6117810   4.5963160
  63.8763190  64.6314270   7.9802330  64.2119430  65.2180960   8.6580250
  62.9563530  64.5006980   8.2100120  51.4266590  52.4209450   8.7625740
  50.7125110  52.6206370   9.3678350  51.8461630  51.6449020   9.1340540
  51.7139180  66.4089710   9.7492270  51.8230300  65.4684450   9.6087660
  51.0619740  66.6744460   9.1006000  59.7051770  64.6805600  11.1490390
  59.3848640  63.9614840  11.6936080  59.0310130  65.3560670  11.2226450
  62.9205370  54.9131760   6.5127190  63.2886190  54.0926970   6.8406760
  62.0603570  54.9733650   6.9282840  59.8807360  57.5671350   6.7365160
  60.3792610  58.0417170   7.4017010  60.0230310  56.6434870   6.9435190
  67.0874220  53.7839310   7.5793550  66.5847820  54.5244710   7.9187360
  67.9030880  54.1723310   7.2630340  67.3821810  66.1981340   2.7009170
  67.5069230  67.0212510   3.1732980  68.2487370  65.9872070   2.3533320
  54.8539340  68.2912550   2.3726300  55.5901820  67.7428010   2.6434870
  55.2380260  69.1568560   2.2332290  53.8597620  67.4758620  11.5611880
  54.6610350  67.7970670  11.9747280  53.3449440  67.1154200  12.2831790
  62.6962250  63.5838490  11.5087290  62.0900410  63.6070090  10.7683040
  62.3916360  62.8521530  12.0454540  64.1262620  67.3118780  10.1196700
  65.0784370  67.2276800  10.0696940  63.9790840  67.9760490  10.7930490
  51.5795430  59.9632080  10.5047930  52.0834450  59.3839360  11.0764160
  50.8402850  60.2472310  11.0424300  58.6333370  61.3703070  10.0383450
  57.8679040  61.9388070   9.9538120  58.8149330  61.0779280   9.1451680
  65.7756720  63.1008400  10.5958470  66.5166190  63.4384160  10.0925930
  65.0129400  63.2700460  10.0428240  53.6118510  58.1061670  11.3998000
  53.6523850  57.8075540  12.3083230  54.4664010  58.5069280  11.2405520
  55.5524320  56.6853770   9.3672490  55.0220780  56.1944720   8.7395830
  56.2212390  57.1137970   8.8330420  64.4502380  61.1523230   9.1313680
  64.8643400  61.3068310   9.9804100  63.5153380  61.2778450   9.2939460
  64.9224550  58.4919390  11.1352830  65.5045320  57.7371710  11.0473310
  65.0986320  59.0226830  10.3584310  56.0396620  53.6516140   9.4469780
  55.9453490  53.0336890   8.7220650  55.4594010  54.3782430   9.2199690
  58.8058060  52.2089380   6.4797170  58.3575360  52.2313640   5.6342720
  58.1723260  51.8108400   7.0767470  59.2117610  61.1043710   7.1009610
  59.6305720  61.9476440   6.9285850  58.2926240  61.2415750   6.8716390
  61.5481510  58.8359890   8.4847450  61.6677720  58.2401030   9.2242290
  62.4075510  58.8729580   8.0648750  63.8869410  59.3897080   7.0609960
  63.3604630  59.9139700   6.4575100  64.2300750  60.0224470   7.6919690
  57.0625030  67.4096720   8.2167340  56.5246120  68.1342780   7.8976040
  57.3158990  66.9327060   7.4264680  58.3150280  55.3781240   9.7423270
  58.9049970  55.0697090  10.4301090  57.4970520  54.9060990   9.8983170
  63.1343710  54.9947050   9.9756290  62.4459230  54.3328590   9.9106280
  63.8549730  54.5485320  10.4204750  59.9187240  68.6447930   8.4753990
  59.8445940  69.5483070   8.7826360  59.0166080  68.3259830   8.4476060
  51.3214530  65.9722520   1.7787610  51.6517540  65.1043580   1.5466250
  51.7505530  66.1781040   2.6092570  51.8104740  66.8393110   4.5169240
  51.3735730  67.0193910   5.3493390  52.3782420  67.5967730   4.3750960
  67.4466920  66.3410110   8.8046550  66.8468910  66.4002670   8.0610470
  67.5760820  65.4015090   8.9343400  66.1318560  63.0662090   6.9022710
  65.3178400  63.4959250   7.1648500  66.5392760  63.6780500   6.2891760
  52.6805100  59.7365910   5.4161460  53.0478140  59.6493310   6.2957480
  52.1115920  58.9732460   5.3168320  67.4808960  58.2050290   8.4291930
  67.2495050  57.9763040   7.5289880  67.7413510  59.1249840   8.3836820
  52.2321100  56.6475000   9.3219880  51.3377150  56.6141760   9.6613590
  52.7718650  56.8461790  10.0871130  65.9197030  53.4306720  11.2071630
  66.7967210  53.4390120  11.5905630  65.9317870  52.6937560  10.5963980
  67.3660300  57.2836260   2.0959650  67.8897780  56.7898910   1.4649820
  67.9519720  57.4186620   2.8407220  67.5450020  57.3676130   5.6179200
  66.5952730  57.3339670   5.7324190  67.7263030  58.2776240   5.3828970
  52.7360810  50.9223330   3.6703100  53.3837000  50.3720710   3.2298260
  53.1562650  51.1766480   4.4918910  66.6313150  51.1164690   7.0272740
  67.2685370  51.7298830   7.3931930  66.7788040  51.1525350   6.0821970
  52.4892810  51.0779000   6.4128420  52.1407630  51.5342820   7.1786600
  52.1580510  50.1836130   6.4950850  54.0957180  64.2498600  10.5781610
  54.0526810  63.8791510  11.4596070  54.2268190  65.1876170  10.7183430
  57.7963210  65.8058190   6.1791330  57.5554570  66.0732750   5.2921850
  58.7365850  65.9763920   6.2342190  60.0017630  52.2690880   9.9347840
  59.9406520  52.8612710  10.6843250  60.9418010  52.1616840   9.7898100
  62.6392190  51.9260940   9.5740130  63.2532600  52.2440230   8.9121210
  63.1841750  51.4409530  10.1935990  69.0567370  67.8252570   6.9801970
  68.5625650  68.2221440   6.2629100  68.4480660  67.2001780   7.3739250
  53.1613450  50.6055200   9.6879190  53.7096440  50.4243250   8.9245300
  53.2268760  49.8149310  10.2235500  53.9345210  67.1960850   7.6979390
  53.3405530  67.0645550   8.4369430  53.9269050  66.3598990   7.2321490
  63.3800230  50.4893080   5.9009420  62.5060070  50.8228190   5.6982350
  63.2710980  50.0166260   6.7261290  64.2872210  52.6963950   7.2851140
  63.9585570  51.8815710   6.9052870  65.2354510  52.6533760   7.1616830
  66.7406820  68.4675990   4.2588710  66.2809790  69.2191800   3.8846730
  66.1119280  67.7482460   4.2003510  53.5657440  64.5619230   6.6487430
  52.8391500  63.9424520   6.5813380  53.6266590  64.9559840   5.7785510
  57.1702540  66.7764230   3.4336840  57.6867560  66.1651590   2.9085100
  57.8199920  67.2793010   3.9247850  59.9098040  67.6672720   4.2605820
  60.1975850  67.4127020   3.3838830  60.4221260  67.1150080   4.8511390
  61.1275050  51.4062920   4.8402330  60.3446840  51.8808420   5.1199090
  60.8337980  50.5017750   4.7315510  65.6796120  52.1086020   2.8851420
  66.1204210  52.0531120   2.0373020  65.4103710  53.0244030   2.9561600
  59.9770400  68.5888820  11.6274020  60.9037710  68.3533090  11.6709980
  59.9620830  69.4160820  11.1460050  57.1634010  51.2533570  11.3915900
  56.8818280  51.7567170  10.6276720  57.5453710  50.4555320  11.0258030
  63.7649470  50.6687150  11.9696370  63.6514920  50.9881760  12.8647890
  64.5819210  51.0699660  11.6733650  66.5447960  67.8158680  11.4515060
  67.3373280  67.3207910  11.2441020  66.8381110  68.4948820  12.0590670
  62.6707620  39.9136130  57.4305070  62.5901670  38.9990740  57.1596780
  62.2572040  40.4103200  56.7244780  60.8025660  41.6915150  59.3114340
  60.0267760  41.2115590  59.6012910  61.4538590  41.0120800  59.1370500
  64.8233090  46.0975340  58.0913470  64.3614620  45.3262580  58.4200640
  65.6358640  46.1241410  58.5965920  53.2283440  36.9636850  53.9732490
  52.3400140  37.3052820  53.8712370  53.5124630  36.7637170  53.0813320
  51.1916450  39.5642500  59.8572190  51.7632560  38.7964700  59.8575830
  51.1917990  39.8631260  58.9478800  61.0496400  48.3833350  57.7117460
  60.4307840  48.8390850  57.1411900  61.9048180  48.5384810  57.3107160
  60.2434650  44.3672340  59.3184500  60.1742930  43.4262280  59.1573630
  61.0054510  44.4573750  59.8907070  61.2739820  37.1742720  59.5453430
  61.6504640  36.3014600  59.4327100  61.1759330  37.5101420  58.6543870
  55.4044830  35.5468350  55.0070870  55.5111580  36.4472080  55.3139630
  54.4937190  35.4986320  54.7165520  65.0563940  34.6693160  56.4781770
  65.8773560  34.1789730  56.5207250  65.0898020  35.2590820  57.2313610
  57.2452560  38.5154720  59.3396050  57.7530780  39.0135690  59.9801070
  57.7765800  37.7389920  59.1635410  61.9159750  43.2672590  55.1049370
  61.2977020  43.7322040  54.5412090  62.4283000  43.9600070  55.5218880
  65.2925420  36.6093540  59.2509310  64.5880990  36.8978430  59.8312420
  65.6537580  37.4193650  58.8908870  51.2842950  43.9529120  52.4789000
  50.9070930  44.4416220  51.7473900  51.5416020  44.6254400  53.1095530
  68.3612340  36.0548330  59.6418520  67.4137250  36.0887310  59.7733950
  68.6862330  36.8687280  60.0267880  58.8931880  32.3545510  57.9374510
  59.2006860  31.7992400  57.2210010  57.9632580  32.4889970  57.7547500
  64.4446940  48.0712800  60.2281970  64.4574100  47.6675090  59.3604230
  63.8922160  48.8460090  60.1243400  65.7392360  44.7929020  55.3172140
  65.6288690  43.8503350  55.4421560  65.7360610  45.1544660  56.2034900
  61.2812640  40.4194340  54.6734630  60.3541920  40.3531720  54.9023100
  61.4337460  41.3574470  54.5589870  61.2681720  36.6911340  51.6701790
  60.3285390  36.8525300  51.7554250  61.5864980  37.4097020  51.1237780
  65.3109930  41.9814640  55.1769880  64.6922350  41.6434190  54.5296180
  65.2934380  41.3374400  55.8849070  56.8869280  40.9459080  57.4554360
  56.4826280  40.2336330  56.9600260  56.9732400  40.6012320  58.3442400
  57.3550980  44.6326640  59.6193570  57.0579270  44.0272110  58.9401350
  58.3050800  44.6703950  59.5082930  63.4874630  41.2201450  52.1842630
  63.9267910  40.3823880  52.0380450  64.2003050  41.8530850  52.2706770
  61.5970010  46.1597520  56.1523870  62.0365920  46.9021850  55.7379260
  61.5356900  46.4024090  57.0762830  67.0691770  32.4744260  50.4983670
  66.7564430  32.5671090  51.3982740  67.8304240  33.0525290  50.4481100
  53.5873910  39.8404060  54.9561010  53.4671510  40.5666150  54.3442280
  53.2774800  39.0706970  54.4788920  52.4706910  44.7119390  57.1735830
  52.0634990  44.8533980  56.3189430  53.3619920  44.4279550  56.9707040
  64.2640190  49.1466640  53.5086880  64.1041330  48.8569580  54.4068710
  64.0986900  48.3706770  52.9732110  56.7428570  48.9265170  55.2858500
  56.5671050  48.0100710  55.0726300  55.8884310  49.2852460  55.5256300
  63.9666320  46.6554200  52.0684880  63.2731480  46.6531490  51.4087160
  64.7089180  46.2313520  51.6379050  63.5316250  48.2816910  56.1433370
  63.9873200  47.5006290  56.4571990  63.8708770  48.9923730  56.6874550
  56.0537570  33.1839130  58.3384680  55.6105720  33.9648670  58.0069200
  56.6122560  33.5069020  59.0455620  59.1696390  32.8049830  53.2190510
  58.5450570  32.8009700  53.9443820  59.0826510  31.9380790  52.8226480
  58.0913470  33.7286460  60.1974280  58.3885800  34.6349290  60.1166300
  58.6399030  33.2405240  59.5833850  55.8451790  38.3072700  56.0665930
  55.6192710  38.0909870  56.9712550  55.0644320  38.7401160  55.7211900
  63.0749550  38.3136070  54.6656580  62.4758440  39.0371870  54.4820200
  63.6229160  38.2512850  53.8833030  61.6814420  36.9499610  56.6959860
  62.0743990  37.2671810  55.8828550  62.0431270  36.0711490  56.8104380
  50.7178590  33.5400410  58.9190060  50.4291640  34.1103270  59.6315040
  51.4624350  33.0604860  59.2821290  50.9048820  37.4820530  50.1292780
  50.8223490  38.4251290  50.2707770  50.5531880  37.3395440  49.2505130
  58.7046950  36.2159560  59.1963130  58.7083010  35.7749510  58.3467670
  59.5998070  36.5376890  59.3034950  54.5549330  36.0986050  58.1557340
  54.2149380  36.5761280  58.9124390  53.7926650  35.6451170  57.7958440
  58.7667100  37.2171640  52.1869890  58.8879920  37.1758120  53.1355710
  58.3815610  38.0795790  52.0316620  57.7788600  39.5272780  51.5853190
  57.2105500  39.0791030  50.9589100  58.4877600  39.8865560  51.0518340
  51.8695410  35.0205030  57.0722010  51.5842330  34.6560700  57.9100630
  51.8074270  34.2885490  56.4585150  55.3236080  43.5230970  53.8579600
  54.5498340  42.9828590  53.6978320  56.0530710  43.0037580  53.5197360
  66.0824060  42.5196330  59.6505990  66.8023180  43.0151620  59.2602100
  65.8805880  41.8414220  59.0059860  61.5434000  33.9134290  53.7935380
  60.7298610  33.4147460  53.7180690  61.3495950  34.7532540  53.3771730
  64.2582390  38.2853940  52.0897540  65.1462010  38.5971170  51.9148880
  64.2287480  37.4126190  51.6978120  55.3673480  43.1911350  57.4958410
  55.8852150  42.3879610  57.4415300  54.9157500  43.1290490  58.3375240
  60.2542980  44.4577630  52.7685710  60.5958680  45.2019860  52.2729030
  59.4255690  44.7708750  53.1310540  66.5296660  39.5965780  51.5577400
  66.4460380  40.0280000  50.7073840  67.2490850  40.0564130  51.9904220
  67.5583910  46.4508040  54.2859530  66.9160070  45.7963660  54.5603250
  67.1714570  46.8563130  53.5100200  63.1370390  43.7793470  58.1331220
  63.4894210  43.1821600  57.4732590  62.2532720  43.4537700  58.3039470
  59.2233670  44.5391160  55.5401630  59.9104800  45.0860370  55.9209220
  58.4366090  45.0831890  55.5751240  51.3626070  40.1563980  51.0318710
  52.2320920  40.4388780  51.3154630  50.8716390  40.9699850  50.9167520
  58.5260880  41.5437190  55.1526990  58.9823660  42.3542440  55.3787180
  58.1749090  41.2260330  55.9845480  54.4272660  31.8874840  55.6249510
  54.2987290  31.8792740  56.5734430  53.6034680  32.2257930  55.2740520
  65.9481290  45.3424500  50.8235880  65.7218870  44.6254940  51.4160520
  65.5577490  45.0936940  49.9857630  51.7297320  49.3691360  51.5980340
  52.0894960  49.9680700  50.9437610  51.5889660  49.9151250  52.3715370
  65.5297540  43.2596440  52.4850040  65.2419240  43.7209130  53.2727920
  66.3249710  42.7994210  52.7534260  57.7465940  46.7522560  52.4154010
  57.7376040  47.4852250  51.7998520  56.8264300  46.5054140  52.5080970
  53.3472580  41.9737450  53.1600770  52.7400530  42.7136350  53.1696070
  53.8221930  42.0636810  52.3338970  66.2867400  35.0945210  53.6445220
  65.6580560  35.1990880  52.9303450  65.7919320  35.3141990  54.4339100
  60.7325540  46.8150800  51.0779200  60.8337520  46.6114790  50.1481180
  59.8327280  46.5609080  51.2826980  58.2551430  37.3731160  55.0603100
  57.5467580  37.8417500  55.5016710  58.5395910  36.7153170  55.6948290
  62.2866860  34.0981820  56.4998890  62.1634640  34.1167950  55.5508400
  63.2351420  34.1460760  56.6197290  59.3743650  49.3337120  55.7726870
  59.6285150  49.2958510  54.8506240  58.4256130  49.2070450  55.7655120
  56.4586450  35.6816240  52.4353810  57.3076980  36.1186390  52.3694000
  56.0917720  35.9936500  53.2625870  65.3796230  40.2529000  57.3485380
  64.4386370  40.2679230  57.5233070  65.6940300  39.4664960  57.7945680
  55.3577870  41.9348600  50.9089340  56.1241140  41.8229960  51.4714770
  55.4352560  41.2386570  50.2566110  54.0524630  39.3673670  51.5922230
  54.1328220  38.4201180  51.7039630  54.9444380  39.6980550  51.6982890
  67.3821810  47.4237850  59.0239640  67.5069230  48.2469020  59.4963450
  68.2487370  47.2128580  58.6763790  54.8539340  49.5169060  58.6956770
  55.5901820  48.9684520  58.9665340  55.2380260  50.3825070  58.5562760
  51.7384820  45.5842630  54.5698280  50.8124600  45.8263770  54.5603690
  52.2041250  46.4116890  54.4483030  57.9641650  48.6899370  50.5182340
  58.7570260  48.9788200  50.0664130  57.4446000  48.2591540  49.8394820
  67.0171820  47.9169500  51.9419080  66.7313330  47.5034640  51.1273260
  66.8191370  48.8457210  51.8219600  58.4819050  43.9102780  50.3824690
  58.3769690  43.2955130  51.1086070  58.3143270  43.3868670  49.5987700
  61.7221780  42.9722810  50.9866680  61.1731880  43.4192110  51.6309420
  62.3441040  42.4672060  51.5104350  57.3896900  41.9313730  52.8831980
  57.8113320  41.7653600  53.7263370  57.5147740  41.1213960  52.3887120
  59.9024540  40.9551340  50.1309080  60.4230200  40.2400360  49.7650230
  60.5492940  41.5937210  50.4309590  56.2855800  38.0046960  49.8290140
  56.0844860  37.1414320  50.1903480  56.1147850  37.9180320  48.8911740
  63.7644110  32.8155190  52.3577020  64.0446400  31.9723090  52.7136440
  62.9909840  33.0478300  52.8715770  55.0838600  35.1047580  49.8168020
  55.3864500  35.1115010  48.9087170  55.8233190  34.7545440  50.3135680
  58.3023530  34.0482200  50.8024220  57.9545530  33.3706190  50.2226670
  58.5036300  33.5871710  51.6167610  60.4672570  49.0362950  52.4210820
  61.3623360  49.3747920  52.4429580  60.4990200  48.3142360  51.7935100
  54.1068730  44.4090000  50.6497820  54.5443600  44.9519670  51.3055400
  54.5916460  43.5836950  50.6594160  51.3214530  47.1979030  58.1018080
  51.6517540  46.3300090  57.8696720  51.7505530  47.4037550  58.9323040
  55.9176450  45.5288040  55.7620050  55.6171990  45.4053010  56.6623960
  55.8113940  44.6696630  55.3535780  68.6868370  45.3084440  50.4646730
  67.8561330  45.3761090  50.9353960  68.8640200  46.1988560  50.1613590
  68.1424830  42.0531920  52.9680930  68.9043740  42.6228570  53.0740620
  68.1579200  41.4859120  53.7389240  51.6429170  40.5769850  57.1988590
  50.9878010  40.3081490  56.5548290  52.4807120  40.4674330  56.7490570
  69.1484800  42.9082020  57.8122860  69.5193630  42.1249340  57.4058830
  69.7886730  43.5971120  57.6340160  68.1944000  42.3466290  50.1253450
  68.4692840  43.2545170  49.9972670  68.0054740  42.2828820  51.0615440
  64.5919610  35.3711140  51.4207080  65.0104490  35.1842120  50.5803740
  64.2855670  34.5190190  51.7310010  68.0909340  40.2835280  55.1182880
  67.7152940  39.5163210  54.6864170  67.3612460  40.6657980  55.6057810
  50.8567250  37.7868780  53.1413920  49.9531330  38.0498980  52.9665580
  51.3407870  38.0579950  52.3613880  67.3660300  38.5092770  58.4190120
  67.8897780  38.0155420  57.7880290  67.9519720  38.6443130  59.1637690
  53.3994460  36.8434320  51.0508300  54.1086160  36.4217540  50.5655580
  52.6834400  36.9109550  50.4191650  53.0468620  32.8973650  50.0910950
  53.7696750  33.4382590  50.4092170  53.3193140  32.6237070  49.2152490
  66.8560270  37.7666120  54.3582530  67.3519390  37.5336990  55.1431410
  66.6576340  36.9277960  53.9420170  68.2847430  36.4027070  56.8920210
  68.1746710  36.2483110  57.8302480  69.0455020  35.8748010  56.6495620
  69.1737700  34.2334990  50.1326350  70.0987010  34.1016170  49.9244640
  69.1513490  34.3127810  51.0862800  69.2476190  35.0045650  52.7583060
  68.4527690  34.9390770  53.2875970  69.4519470  35.9396290  52.7468410
  66.1894610  49.0437200  56.7521450  66.7853680  48.7221770  56.0755870
  66.4472760  48.5709020  57.5434720  57.1702540  48.0020740  59.7567310
  57.6867560  47.3908100  59.2315570  57.8199920  48.5049520  60.2478320
  65.6796120  33.3342530  59.2081890  66.1204210  33.2787630  58.3603490
  65.4103710  34.2500540  59.2792070  67.5434690  32.9657770  57.2190710
  67.4823090  32.0218990  57.0721730  68.3226720  33.0737860  57.7644170
  51.8487440  49.1050130  56.1814660  51.6809480  48.4720810  56.8796550
  50.9821950  49.3109530  55.8308850  52.4715460  32.9366910  53.6846520
  53.2294820  33.0495790  53.1110550  52.0092630  33.7736110  53.6389950
  59.0129270  35.0506180  56.6748830  58.2003780  34.6763070  56.3344710
  59.5170910  34.2951260  56.9770020  63.5154250  31.7148630  57.9131900
  64.1183620  32.2868840  58.3880420  62.7747240  32.2788070  57.6905800
  66.6588850  32.1170190  53.1872180  66.8539480  33.0153640  53.4539610
  65.8718720  31.8857270  53.6805130  53.4550140  47.7983360  53.6264800
  52.9297760  48.1791390  52.9226760  53.3794720  48.4234130  54.3474510
  54.8440610  33.4630960  52.2248490  55.3733370  32.6760760  52.0956440
  55.4768930  34.1422150  52.4584020  57.0378450  33.2006100  55.2793880
  56.4081190  32.4993410  55.4464010  56.4983590  33.9610230  55.0627040
  68.2115460  49.3570900  54.9478740  68.3867650  48.6708640  54.3039660
  67.5137030  49.8817950  54.5555410  56.0543110  49.7465740  52.5014050
  56.7861930  49.4625020  51.9537940  56.3136780  49.5079020  53.3913430
  55.2157900  45.8630470  52.5060380  54.5866780  46.3315570  53.0546210
  55.3305730  45.0179690  52.9406570  53.2283440  36.9636850  35.1989000
  52.3400140  37.3052820  35.0968880  53.5124630  36.7637170  34.3069830
  55.4044830  35.5468350  36.2327380  55.5111580  36.4472080  36.5396140
  54.4937190  35.4986320  35.9422030  65.0563940  34.6693160  37.7038280
  65.8773560  34.1789730  37.7463760  65.0898020  35.2590820  38.4570120
  51.2842950  43.9529120  33.7045510  50.9070930  44.4416220  32.9730410
  51.5416020  44.6254400  34.3352040  65.7392360  44.7929020  36.5428650
  65.6288690  43.8503350  36.6678070  65.7360610  45.1544660  37.4291410
  61.2812640  40.4194340  35.8991140  60.3541920  40.3531720  36.1279610
  61.4337460  41.3574470  35.7846380  61.2681720  36.6911340  32.8958300
  60.3285390  36.8525300  32.9810760  61.5864980  37.4097020  32.3494290
  65.3109930  41.9814640  36.4026390  64.6922350  41.6434190  35.7552690
  65.2934380  41.3374400  37.1105580  56.4469410  44.3708330  47.4957880
  55.5497940  44.5948300  47.7431280  56.4722280  44.4943270  46.5469280
  63.4874630  41.2201450  33.4099140  63.9267910  40.3823880  33.2636960
  64.2003050  41.8530850  33.4963280  67.0691770  32.4744260  31.7240180
  66.7564430  32.5671090  32.6239250  67.8304240  33.0525290  31.6737610
  53.5873910  39.8404060  36.1817520  53.4671510  40.5666150  35.5698790
  53.2774800  39.0706970  35.7045430  69.0235800  47.9670450  49.5764570
  69.4995520  48.4453340  50.2553650  69.6442960  47.8987940  48.8510070
  52.4706910  44.7119390  38.3992340  52.0634990  44.8533980  37.5445940
  53.3619920  44.4279550  38.1963550  68.2793060  37.2115760  47.7014320
  67.6637330  37.7195430  47.1729780  67.9589480  36.3114090  47.6440260
  62.4361600  38.7718350  48.3971960  62.7615010  37.9382100  48.0574190
  63.2241930  39.2946870  48.5450290  59.1696390  32.8049830  34.4447020
  58.5450570  32.8009700  35.1700330  59.0826510  31.9380790  34.0482990
  55.8451790  38.3072700  37.2922440  55.6192710  38.0909870  38.1969060
  55.0644320  38.7401160  36.9468410  63.0749550  38.3136070  35.8913090
  62.4758440  39.0371870  35.7076710  63.6229160  38.2512850  35.1089540
  58.2851000  39.2058280  47.9582710  58.1894600  38.2653010  47.8083110
  59.1282980  39.4273350  47.5630780  59.9906590  35.7006920  49.1813230
  59.3004910  35.5079120  49.8159320  60.7338890  35.9841560  49.7137530
  50.9048820  37.4820530  31.3549290  50.8223490  38.4251290  31.4964280
  50.5531880  37.3395440  30.4761640  58.7667100  37.2171640  33.4126400
  58.8879920  37.1758120  34.3612220  58.3815610  38.0795790  33.2573130
  57.7788600  39.5272780  32.8109700  57.2105500  39.0791030  32.1845610
  58.4877600  39.8865560  32.2774850  66.1566220  32.4071220  47.2676470
  66.4811990  31.6760880  47.7934450  66.1922730  32.0884860  46.3657460
  51.8695410  35.0205030  38.2978520  51.5842330  34.6560700  39.1357140
  51.8074270  34.2885490  37.6841660  55.3236080  43.5230970  35.0836110
  54.5498340  42.9828590  34.9234830  56.0530710  43.0037580  34.7453870
  61.5434000  33.9134290  35.0191890  60.7298610  33.4147460  34.9437200
  61.3495950  34.7532540  34.6028240  64.2582390  38.2853940  33.3154050
  65.1462010  38.5971170  33.1405390  64.2287480  37.4126190  32.9234630
  56.0531140  40.6156960  48.5180170  55.7531280  40.7614140  47.6207990
  56.8242380  40.0562250  48.4253560  66.5296660  39.5965780  32.7833910
  66.4460380  40.0280000  31.9330350  67.2490850  40.0564130  33.2160730
  51.3626070  40.1563980  32.2575220  52.2320920  40.4388780  32.5411140
  50.8716390  40.9699850  32.1424030  58.5260880  41.5437190  36.3783500
  58.9823660  42.3542440  36.6043690  58.1749090  41.2260330  37.2101990
  54.4272660  31.8874840  36.8506020  54.2987290  31.8792740  37.7990940
  53.6034680  32.2257930  36.4997030  65.5297540  43.2596440  33.7106550
  65.2419240  43.7209130  34.4984430  66.3249710  42.7994210  33.9790770
  59.7051770  45.9062110  48.6977370  59.3848640  45.1871350  49.2423060
  59.0310130  46.5817180  48.7713430  53.3472580  41.9737450  34.3857280
  52.7400530  42.7136350  34.3952580  53.8221930  42.0636810  33.5595480
  66.2867400  35.0945210  34.8701730  65.6580560  35.1990880  34.1559960
  65.7919320  35.3141990  35.6595610  58.2551430  37.3731160  36.2859610
  57.5467580  37.8417500  36.7273220  58.5395910  36.7153170  36.9204800
  62.2866860  34.0981820  37.7255400  62.1634640  34.1167950  36.7764910
  63.2351420  34.1460760  37.8453800  56.4586450  35.6816240  33.6610320
  57.3076980  36.1186390  33.5950510  56.0917720  35.9936500  34.4882380
  65.3796230  40.2529000  38.5741890  64.4386370  40.2679230  38.7489580
  65.6940300  39.4664960  39.0202190  55.3577870  41.9348600  32.1345850
  56.1241140  41.8229960  32.6971280  55.4352560  41.2386570  31.4822620
  54.0524630  39.3673670  32.8178740  54.1328220  38.4201180  32.9296140
  54.9444380  39.6980550  32.9239400  51.7384820  45.5842630  35.7954790
  50.8124600  45.8263770  35.7860200  52.2041250  46.4116890  35.6739540
  53.8597620  48.7015130  49.1098860  54.6610350  49.0227180  49.5234260
  53.3449440  48.3410710  49.8318770  62.6962250  44.8095000  49.0574270
  62.0900410  44.8326600  48.3170020  62.3916360  44.0778040  49.5941520
  64.1262620  48.5375290  47.6683680  65.0784370  48.4533310  47.6183920
  63.9790840  49.2017000  48.3417470  58.6333370  42.5959580  47.5870430
  57.8679040  43.1644580  47.5025100  58.8149330  42.3035790  46.6938660
  65.7756720  44.3264910  48.1445450  66.5166190  44.6640670  47.6412910
  65.0129400  44.4956970  47.5915220  53.6118510  39.3318180  48.9484980
  53.6523850  39.0332050  49.8570210  54.4664010  39.7325790  48.7892500
  57.3896900  41.9313730  34.1088490  57.8113320  41.7653600  34.9519880
  57.5147740  41.1213960  33.6143630  59.9024540  40.9551340  31.3565590
  60.4230200  40.2400360  30.9906740  60.5492940  41.5937210  31.6566100
  64.9224550  39.7175900  48.6839810  65.5045320  38.9628220  48.5960290
  65.0986320  40.2483340  47.9071290  56.0396620  34.8772650  46.9956760
  55.9453490  34.2593400  46.2707630  55.4594010  35.6038940  46.7686670
  56.2855800  38.0046960  31.0546650  56.0844860  37.1414320  31.4159990
  56.1147850  37.9180320  30.1168250  58.3150280  36.6037750  47.2910250
  58.9049970  36.2953600  47.9788070  57.4970520  36.1317500  47.4470150
  63.1343710  36.2203560  47.5243270  62.4459230  35.5585100  47.4593260
  63.8549730  35.7741830  47.9691730  63.7644110  32.8155190  33.5833530
  64.0446400  31.9723090  33.9392950  62.9909840  33.0478300  34.0972280
  55.0838600  35.1047580  31.0424530  55.3864500  35.1115010  30.1343680
  55.8233190  34.7545440  31.5392190  58.3023530  34.0482200  32.0280730
  57.9545530  33.3706190  31.4483180  58.5036300  33.5871710  32.8424120
  54.1068730  44.4090000  31.8754330  54.5443600  44.9519670  32.5311910
  54.5916460  43.5836950  31.8850670  51.3214530  47.1979030  39.3274590
  51.6517540  46.3300090  39.0953230  51.7505530  47.4037550  40.1579550
  51.6429170  40.5769850  38.4245100  50.9878010  40.3081490  37.7804800
  52.4807120  40.4674330  37.9747080  64.5919610  35.3711140  32.6463590
  65.0104490  35.1842120  31.8060250  64.2855670  34.5190190  32.9566520
  68.0909340  40.2835280  36.3439390  67.7152940  39.5163210  35.9120680
  67.3612460  40.6657980  36.8314320  65.9197030  34.6563230  48.7558610
  66.7967210  34.6646630  49.1392610  65.9317870  33.9194070  48.1450960
  50.8567250  37.7868780  34.3670430  49.9531330  38.0498980  34.1922090
  51.3407870  38.0579950  33.5870390  53.3994460  36.8434320  32.2764810
  54.1086160  36.4217540  31.7912090  52.6834400  36.9109550  31.6448160
  53.0468620  32.8973650  31.3167460  53.7696750  33.4382590  31.6348680
  53.3193140  32.6237070  30.4409000  66.8560270  37.7666120  35.5839040
  67.3519390  37.5336990  36.3687920  66.6576340  36.9277960  35.1676680
  68.2847430  36.4027070  38.1176720  68.1746710  36.2483110  39.0558990
  69.0455020  35.8748010  37.8752130  66.6313150  32.3421200  44.5759720
  67.2685370  32.9555340  44.9418910  66.7788040  32.3781860  43.6308950
  69.1737700  34.2334990  31.3582860  70.0987010  34.1016170  31.1501150
  69.1513490  34.3127810  32.3119310  69.2476190  35.0045650  33.9839570
  68.4527690  34.9390770  34.5132480  69.4519470  35.9396290  33.9724920
  60.0017630  33.4947390  47.4834820  59.9406520  34.0869220  48.2330230
  60.9418010  33.3873350  47.3385080  62.6392190  33.1517450  47.1227110
  63.2532600  33.4696740  46.4608190  63.1841750  32.6666040  47.7422970
  67.5434690  32.9657770  38.4447220  67.4823090  32.0218990  38.2978240
  68.3226720  33.0737860  38.9900680  52.4715460  32.9366910  34.9103030
  53.2294820  33.0495790  34.3367060  52.0092630  33.7736110  34.8646460
  66.6588850  32.1170190  34.4128690  66.8539480  33.0153640  34.6796120
  65.8718720  31.8857270  34.9061640  54.8440610  33.4630960  33.4505000
  55.3733370  32.6760760  33.3212950  55.4768930  34.1422150  33.6840530
  57.0378450  33.2006100  36.5050390  56.4081190  32.4993410  36.6720520
  56.4983590  33.9610230  36.2883550  59.9770400  49.8145330  49.1761000
  60.9037710  49.5789600  49.2196960  59.9620830  50.6417330  48.6947030
  57.1634010  32.4790080  48.9402880  56.8818280  32.9823680  48.1763700
  57.5453710  31.6811830  48.5745010  63.7649470  31.8943660  49.5183350
  63.6514920  32.2138270  50.4134870  64.5819210  32.2956170  49.2220630
  66.5447960  49.0415190  49.0002040  67.3373280  48.5464420  48.7928000
  66.8381110  49.7205330  49.6077650  62.6707620  39.9136130  19.8818090
  62.5901670  38.9990740  19.6109800  62.2572040  40.4103200  19.1757800
  60.8025660  41.6915150  21.7627360  60.0267760  41.2115590  22.0525930
  61.4538590  41.0120800  21.5883520  54.8191490  42.0034960  22.6403120
  53.9876370  41.7483670  23.0399630  55.4272470  42.0745730  23.3761040
  54.7992750  46.0375050  22.8361140  55.1020790  45.1472790  22.6571360
  55.5436340  46.5945270  22.6083390  53.2283440  36.9636850  16.4245510
  52.3400140  37.3052820  16.3225390  53.5124630  36.7637170  15.5326340
  51.1916450  39.5642500  22.3085210  51.7632560  38.7964700  22.3088850
  51.1917990  39.8631260  21.3991820  52.4341320  34.9726860  24.0954140
  52.2544160  34.0752610  24.3756900  52.0321400  35.5198730  24.7701090
  61.2739820  37.1742720  21.9966450  61.6504640  36.3014600  21.8840120
  61.1759330  37.5101420  21.1056890  55.4044830  35.5468350  17.4583890
  55.5111580  36.4472080  17.7652650  54.4937190  35.4986320  17.1678540
  65.0563940  34.6693160  18.9294790  65.8773560  34.1789730  18.9720270
  65.0898020  35.2590820  19.6826630  53.0527990  37.4687360  22.7036480
  53.7338100  37.7325730  23.3223880  52.7376040  36.6288230  23.0374490
  57.2452560  38.5154720  21.7909070  57.7530780  39.0135690  22.4314090
  57.7765800  37.7389920  21.6148430  69.3463490  36.6859910  25.4938420
  68.6415660  37.0741620  24.9753530  69.6121410  37.3810200  26.0959350
  55.5288660  33.1553280  26.0572490  55.5307100  33.6725670  25.2518390
  54.6992970  32.6783460  26.0342420  61.9159750  43.2672590  17.5562390
  61.2977020  43.7322040  16.9925110  62.4283000  43.9600070  17.9731900
  56.7791510  42.7948460  24.2345990  56.4460890  43.4217380  24.8767060
  56.9558190  43.3210340  23.4547660  65.2925420  36.6093540  21.7022330
  64.5880990  36.8978430  22.2825440  65.6537580  37.4193650  21.3421890
  55.2103990  34.8663240  24.0642940  55.5520800  35.7105290  23.7696810
  54.2719800  35.0146980  24.1808280  55.9910610  44.7629260  26.0495170
  56.6084610  45.4380340  25.7679620  55.1303730  45.1717240  25.9582670
  51.2842950  43.9529120  14.9302020  50.9070930  44.4416220  14.1986920
  51.5416020  44.6254400  15.5608550  68.3612340  36.0548330  22.0931540
  67.4137250  36.0887310  22.2246970  68.6862330  36.8687280  22.4780900
  58.8931880  32.3545510  20.3887530  59.2006860  31.7992400  19.6723030
  57.9632580  32.4889970  20.2060520  65.7392360  44.7929020  17.7685160
  65.6288690  43.8503350  17.8934580  65.7360610  45.1544660  18.6547920
  61.2812640  40.4194340  17.1247650  60.3541920  40.3531720  17.3536120
  61.4337460  41.3574470  17.0102890  61.2681720  36.6911340  14.1214810
  60.3285390  36.8525300  14.2067270  61.5864980  37.4097020  13.5750800
  65.3109930  41.9814640  17.6282900  64.6922350  41.6434190  16.9809200
  65.2934380  41.3374400  18.3362090  64.7536490  38.1599180  25.0448710
  64.3407670  38.9852890  25.2988700  64.0212440  37.5744220  24.8525070
  56.8869280  40.9459080  19.9067380  56.4826280  40.2336330  19.4113280
  56.9732400  40.6012320  20.7955420  57.3550980  44.6326640  22.0706590
  57.0579270  44.0272110  21.3914370  58.3050800  44.6703950  21.9595950
  55.5997900  37.7202290  23.6866420  56.1512490  37.8297630  22.9119670
  56.1141410  38.0939890  24.4021650  63.4874630  41.2201450  14.6355650
  63.9267910  40.3823880  14.4893470  64.2003050  41.8530850  14.7219790
  55.2740630  41.2421650  27.2971760  55.1348400  42.1144450  27.6659160
  54.3921990  40.8994460  27.1519700  61.5970010  46.1597520  18.6036890
  62.0365920  46.9021850  18.1892280  61.5356900  46.4024090  19.5275850
  67.0691770  32.4744260  12.9496690  66.7564430  32.5671090  13.8495760
  67.8304240  33.0525290  12.8994120  53.5873910  39.8404060  17.4074030
  53.4671510  40.5666150  16.7955300  53.2774800  39.0706970  16.9301940
  51.2259280  43.0119200  23.2142670  51.3039700  43.1467970  22.2698390
  51.8400960  42.3035090  23.4070790  52.4706910  44.7119390  19.6248850
  52.0634990  44.8533980  18.7702450  53.3619920  44.4279550  19.4220060
  64.2640190  49.1466640  15.9599900  64.1041330  48.8569580  16.8581730
  64.0986900  48.3706770  15.4245130  56.7428570  48.9265170  17.7371520
  56.5671050  48.0100710  17.5239320  55.8884310  49.2852460  17.9769320
  63.9666320  46.6554200  14.5197900  63.2731480  46.6531490  13.8600180
  64.7089180  46.2313520  14.0892070  68.2793060  37.2115760  28.9270830
  67.6637330  37.7195430  28.3986290  67.9589480  36.3114090  28.8696770
  51.2818800  44.0533370  25.7537130  51.4449840  43.5838730  24.9356500
  51.7471250  43.5456930  26.4185970  56.0537570  33.1839130  20.7897700
  55.6105720  33.9648670  20.4582220  56.6122560  33.5069020  21.4968640
  60.3407380  36.0507650  26.3933020  59.8786750  36.2590670  27.2052960
  59.9385490  35.2367000  26.0903690  65.3411890  37.2716600  27.5229680
  64.4905480  36.9722350  27.8438750  65.1813680  37.5158610  26.6113500
  62.4361600  38.7718350  29.6228470  62.7615010  37.9382100  29.2830700
  63.2241930  39.2946870  29.7706800  59.1696390  32.8049830  15.6703530
  58.5450570  32.8009700  16.3956840  59.0826510  31.9380790  15.2739500
  58.0913470  33.7286460  22.6487300  58.3885800  34.6349290  22.5679320
  58.6399030  33.2405240  22.0346870  55.8451790  38.3072700  18.5178950
  55.6192710  38.0909870  19.4225570  55.0644320  38.7401160  18.1724920
  63.0749550  38.3136070  17.1169600  62.4758440  39.0371870  16.9333220
  63.6229160  38.2512850  16.3346050  58.2851000  39.2058280  29.1839220
  58.1894600  38.2653010  29.0339620  59.1282980  39.4273350  28.7887290
  61.6814420  36.9499610  19.1472880  62.0743990  37.2671810  18.3341570
  62.0431270  36.0711490  19.2617400  53.4161540  35.6171950  27.3373000
  53.0224930  36.4647160  27.5445780  52.7279940  34.9798320  27.5281640
  59.9906590  35.7006920  30.4069740  59.3004910  35.5079120  31.0415830
  60.7338890  35.9841560  30.9394040  50.7178590  33.5400410  21.3703080
  50.4291640  34.1103270  22.0828060  51.4624350  33.0604860  21.7334310
  50.9048820  37.4820530  12.5805800  50.8223490  38.4251290  12.7220790
  50.5531880  37.3395440  11.7018150  62.2669560  39.5405360  23.2423660
  61.5350680  40.0492170  23.5913760  61.8693900  38.7235340  22.9412440
  58.7046950  36.2159560  21.6476150  58.7083010  35.7749510  20.7980690
  59.5998070  36.5376890  21.7547970  54.5549330  36.0986050  20.6070360
  54.2149380  36.5761280  21.3637410  53.7926650  35.6451170  20.2471460
  58.7667100  37.2171640  14.6382910  58.8879920  37.1758120  15.5868730
  58.3815610  38.0795790  14.4829640  62.7295470  34.9939040  22.6546600
  62.7468210  35.4447690  23.4988450  62.4811050  34.0944680  22.8680040
  57.7788600  39.5272780  14.0366210  57.2105500  39.0791030  13.4102120
  58.4877600  39.8865560  13.5031360  66.1566220  32.4071220  28.4932980
  66.4811990  31.6760880  29.0190960  66.1922730  32.0884860  27.5913970
  52.8557780  43.4284800  27.9132940  52.4712570  42.7878470  28.5115900
  53.1669970  44.1320920  28.4827670  59.0054920  40.2761340  23.3941560
  59.3725050  39.8019910  24.1402900  58.8159980  41.1502910  23.7349900
  51.8695410  35.0205030  19.5235030  51.5842330  34.6560700  20.3613650
  51.8074270  34.2885490  18.9098170  56.7954290  39.3169980  25.7125770
  56.4911360  40.1961960  25.9376130  57.7500750  39.3769770  25.7483210
  55.3236080  43.5230970  16.3092620  54.5498340  42.9828590  16.1491340
  56.0530710  43.0037580  15.9710380  61.5434000  33.9134290  16.2448400
  60.7298610  33.4147460  16.1693710  61.3495950  34.7532540  15.8284750
  64.2582390  38.2853940  14.5410560  65.1462010  38.5971170  14.3661900
  64.2287480  37.4126190  14.1491140  55.3673480  43.1911350  19.9471430
  55.8852150  42.3879610  19.8928320  54.9157500  43.1290490  20.7888260
  60.2542980  44.4577630  15.2198730  60.5958680  45.2019860  14.7242050
  59.4255690  44.7708750  15.5823560  52.8518020  40.1572720  26.8597130
  52.4932960  40.8226570  27.4470470  52.5572580  39.3256270  27.2309750
  56.0531140  40.6156960  29.7436680  55.7531280  40.7614140  28.8464500
  56.8242380  40.0562250  29.6510070  66.5296660  39.5965780  14.0090420
  66.4460380  40.0280000  13.1586860  67.2490850  40.0564130  14.4417240
  67.6070800  42.0533300  27.0860390  66.8818990  42.6462080  26.8889780
  68.1346260  42.0456840  26.2873760  67.5583910  46.4508040  16.7372550
  66.9160070  45.7963660  17.0116270  67.1714570  46.8563130  15.9613220
  59.2233670  44.5391160  17.9914650  59.9104800  45.0860370  18.3722240
  58.4366090  45.0831890  18.0264260  51.3626070  40.1563980  13.4831730
  52.2320920  40.4388780  13.7667650  50.8716390  40.9699850  13.3680540
  58.5260880  41.5437190  17.6040010  58.9823660  42.3542440  17.8300200
  58.1749090  41.2260330  18.4358500  54.4272660  31.8874840  18.0762530
  54.2987290  31.8792740  19.0247450  53.6034680  32.2257930  17.7253540
  65.9481290  45.3424500  13.2748900  65.7218870  44.6254940  13.8673540
  65.5577490  45.0936940  12.4370650  51.7297320  49.3691360  14.0493360
  52.0894960  49.9680700  13.3950630  51.5889660  49.9151250  14.8228390
  51.4266590  33.6465960  27.5369230  50.7125110  33.8462880  28.1421840
  51.8461630  32.8705530  27.9084030  65.5297540  43.2596440  14.9363060
  65.2419240  43.7209130  15.7240940  66.3249710  42.7994210  15.2047280
  57.7465940  46.7522560  14.8667030  57.7376040  47.4852250  14.2511540
  56.8264300  46.5054140  14.9593990  53.3472580  41.9737450  15.6113790
  52.7400530  42.7136350  15.6209090  53.8221930  42.0636810  14.7851990
  62.9205370  36.1388270  25.2870680  63.2886190  35.3183480  25.6150250
  62.0603570  36.1990160  25.7026330  66.2867400  35.0945210  16.0958240
  65.6580560  35.1990880  15.3816470  65.7919320  35.3141990  16.8852120
  60.7325540  46.8150800  13.5292220  60.8337520  46.6114790  12.5994200
  59.8327280  46.5609080  13.7340000  58.2551430  37.3731160  17.5116120
  57.5467580  37.8417500  17.9529730  58.5395910  36.7153170  18.1461310
  59.8807360  38.7927860  25.5108650  60.3792610  39.2673680  26.1760500
  60.0230310  37.8691380  25.7178680  62.2866860  34.0981820  18.9511910
  62.1634640  34.1167950  18.0021420  63.2351420  34.1460760  19.0710310
  59.3743650  49.3337120  18.2239890  59.6285150  49.2958510  17.3019260
  58.4256130  49.2070450  18.2168140  56.4586450  35.6816240  14.8866830
  57.3076980  36.1186390  14.8207020  56.0917720  35.9936500  15.7138890
  67.0874220  35.0095820  26.3537040  66.5847820  35.7501220  26.6930850
  67.9030880  35.3979820  26.0373830  65.3796230  40.2529000  19.7998400
  64.4386370  40.2679230  19.9746090  65.6940300  39.4664960  20.2458700
  55.3577870  41.9348600  13.3602360  56.1241140  41.8229960  13.9227790
  55.4352560  41.2386570  12.7079130  54.0524630  39.3673670  14.0435250
  54.1328220  38.4201180  14.1552650  54.9444380  39.6980550  14.1495910
  51.7384820  45.5842630  17.0211300  50.8124600  45.8263770  17.0116710
  52.2041250  46.4116890  16.8996050  57.9641650  48.6899370  12.9695360
  58.7570260  48.9788200  12.5177150  57.4446000  48.2591540  12.2907840
  67.0171820  47.9169500  14.3932100  66.7313330  47.5034640  13.5786280
  66.8191370  48.8457210  14.2732620  51.5795430  41.1888590  29.2791420
  52.0834450  40.6095870  29.8507650  50.8402850  41.4728820  29.8167790
  58.4819050  43.9102780  12.8337710  58.3769690  43.2955130  13.5599090
  58.3143270  43.3868670  12.0500720  61.7221780  42.9722810  13.4379700
  61.1731880  43.4192110  14.0822440  62.3441040  42.4672060  13.9617370
  53.6118510  39.3318180  30.1741490  53.6523850  39.0332050  31.0826720
  54.4664010  39.7325790  30.0149010  57.3896900  41.9313730  15.3345000
  57.8113320  41.7653600  16.1776390  57.5147740  41.1213960  14.8400140
  55.5524320  37.9110280  28.1415980  55.0220780  37.4201230  27.5139320
  56.2212390  38.3394480  27.6073910  59.9024540  40.9551340  12.5822100
  60.4230200  40.2400360  12.2163250  60.5492940  41.5937210  12.8822610
  64.9224550  39.7175900  29.9096320  65.5045320  38.9628220  29.8216800
  65.0986320  40.2483340  29.1327800  56.0396620  34.8772650  28.2213270
  55.9453490  34.2593400  27.4964140  55.4594010  35.6038940  27.9943180
  58.8058060  33.4345890  25.2540660  58.3575360  33.4570150  24.4086210
  58.1723260  33.0364910  25.8510960  61.5481510  40.0616400  27.2590940
  61.6677720  39.4657540  27.9985780  62.4075510  40.0986090  26.8392240
  63.8869410  40.6153590  25.8353450  63.3604630  41.1396210  25.2318590
  64.2300750  41.2480980  26.4663180  56.2855800  38.0046960  12.2803160
  56.0844860  37.1414320  12.6416500  56.1147850  37.9180320  11.3424760
  58.3150280  36.6037750  28.5166760  58.9049970  36.2953600  29.2044580
  57.4970520  36.1317500  28.6726660  63.1343710  36.2203560  28.7499780
  62.4459230  35.5585100  28.6849770  63.8549730  35.7741830  29.1948240
  63.7644110  32.8155190  14.8090040  64.0446400  31.9723090  15.1649460
  62.9909840  33.0478300  15.3228790  55.0838600  35.1047580  12.2681040
  55.3864500  35.1115010  11.3600190  55.8233190  34.7545440  12.7648700
  58.3023530  34.0482200  13.2537240  57.9545530  33.3706190  12.6739690
  58.5036300  33.5871710  14.0680630  60.4672570  49.0362950  14.8723840
  61.3623360  49.3747920  14.8942600  60.4990200  48.3142360  14.2448120
  54.1068730  44.4090000  13.1010840  54.5443600  44.9519670  13.7568420
  54.5916460  43.5836950  13.1107180  55.9176450  45.5288040  18.2133070
  55.6171990  45.4053010  19.1136980  55.8113940  44.6696630  17.8048800
  68.6868370  45.3084440  12.9159750  67.8561330  45.3761090  13.3866980
  68.8640200  46.1988560  12.6126610  68.1424830  42.0531920  15.4193950
  68.9043740  42.6228570  15.5253640  68.1579200  41.4859120  16.1902260
  51.6429170  40.5769850  19.6501610  50.9878010  40.3081490  19.0061310
  52.4807120  40.4674330  19.2003590  69.1484800  42.9082020  20.2635880
  69.5193630  42.1249340  19.8571850  69.7886730  43.5971120  20.0853180
  68.1944000  42.3466290  12.5766470  68.4692840  43.2545170  12.4485690
  68.0054740  42.2828820  13.5128460  64.5919610  35.3711140  13.8720100
  65.0104490  35.1842120  13.0316760  64.2855670  34.5190190  14.1823030
  68.0909340  40.2835280  17.5695900  67.7152940  39.5163210  17.1377190
  67.3612460  40.6657980  18.0570830  52.6805100  40.9622420  24.1904950
  53.0478140  40.8749820  25.0700970  52.1115920  40.1988970  24.0911810
  67.4808960  39.4306800  27.2035420  67.2495050  39.2019550  26.3033370
  67.7413510  40.3506350  27.1580310  52.2321100  37.8731510  28.0963370
  51.3377150  37.8398270  28.4357080  52.7718650  38.0718300  28.8614620
  65.9197030  34.6563230  29.9815120  66.7967210  34.6646630  30.3649120
  65.9317870  33.9194070  29.3707470  50.8567250  37.7868780  15.5926940
  49.9531330  38.0498980  15.4178600  51.3407870  38.0579950  14.8126900
  67.3660300  38.5092770  20.8703140  67.8897780  38.0155420  20.2393310
  67.9519720  38.6443130  21.6150710  67.5450020  38.5932640  24.3922690
  66.5952730  38.5596180  24.5067680  67.7263030  39.5032750  24.1572460
  53.3994460  36.8434320  13.5021320  54.1086160  36.4217540  13.0168600
  52.6834400  36.9109550  12.8704670  53.0468620  32.8973650  12.5423970
  53.7696750  33.4382590  12.8605190  53.3193140  32.6237070  11.6665510
  66.8560270  37.7666120  16.8095550  67.3519390  37.5336990  17.5944430
  66.6576340  36.9277960  16.3933190  52.7360810  32.1479840  22.4446590
  53.3837000  31.5977220  22.0041750  53.1562650  32.4022990  23.2662400
  68.2847430  36.4027070  19.3433230  68.1746710  36.2483110  20.2815500
  69.0455020  35.8748010  19.1008640  66.6313150  32.3421200  25.8016230
  67.2685370  32.9555340  26.1675420  66.7788040  32.3781860  24.8565460
  69.1737700  34.2334990  12.5839370  70.0987010  34.1016170  12.3757660
  69.1513490  34.3127810  13.5375820  69.2476190  35.0045650  15.2096080
  68.4527690  34.9390770  15.7388990  69.4519470  35.9396290  15.1981430
  52.4892810  32.3035510  25.1871910  52.1407630  32.7599330  25.9530090
  52.1580510  31.4092640  25.2694340  60.0017630  33.4947390  28.7091330
  59.9406520  34.0869220  29.4586740  60.9418010  33.3873350  28.5641590
  62.6392190  33.1517450  28.3483620  63.2532600  33.4696740  27.6864700
  63.1841750  32.6666040  28.9679480  53.1613450  31.8311710  28.4622680
  53.7096440  31.6499760  27.6988790  53.2268760  31.0405820  28.9978990
  63.3800230  31.7149590  24.6752910  62.5060070  32.0484700  24.4725840
  63.2710980  31.2422770  25.5004780  64.2872210  33.9220460  26.0594630
  63.9585570  33.1072220  25.6796360  65.2354510  33.8790270  25.9360320
  57.1702540  48.0020740  22.2080330  57.6867560  47.3908100  21.6828590
  57.8199920  48.5049520  22.6991340  61.1275050  32.6319430  23.6145820
  60.3446840  33.1064930  23.8942580  60.8337980  31.7274260  23.5059000
  65.6796120  33.3342530  21.6594910  66.1204210  33.2787630  20.8116510
  65.4103710  34.2500540  21.7305090  67.5434690  32.9657770  19.6703730
  67.4823090  32.0218990  19.5234750  68.3226720  33.0737860  20.2157190
  51.8487440  49.1050130  18.6327680  51.6809480  48.4720810  19.3309570
  50.9821950  49.3109530  18.2821870  52.4715460  32.9366910  16.1359540
  53.2294820  33.0495790  15.5623570  52.0092630  33.7736110  16.0902970
  59.0129270  35.0506180  19.1261850  58.2003780  34.6763070  18.7857730
  59.5170910  34.2951260  19.4283040  63.5154250  31.7148630  20.3644920
  64.1183620  32.2868840  20.8393440  62.7747240  32.2788070  20.1418820
  66.6588850  32.1170190  15.6385200  66.8539480  33.0153640  15.9052630
  65.8718720  31.8857270  16.1318150  53.4550140  47.7983360  16.0777820
  52.9297760  48.1791390  15.3739780  53.3794720  48.4234130  16.7987530
  54.8440610  33.4630960  14.6761510  55.3733370  32.6760760  14.5469460
  55.4768930  34.1422150  14.9097040  57.0378450  33.2006100  17.7306900
  56.4081190  32.4993410  17.8977030  56.4983590  33.9610230  17.5140060
  57.1634010  32.4790080  30.1659390  56.8818280  32.9823680  29.4020210
  57.5453710  31.6811830  29.8001520  56.0543110  49.7465740  14.9527070
  56.7861930  49.4625020  14.4050960  56.3136780  49.5079020  15.8426450
  55.2157900  45.8630470  14.9573400  54.5866780  46.3315570  15.5059230
  55.3305730  45.0179690  15.3919590  63.7649470  31.8943660  30.7439860
  63.6514920  32.2138270  31.6391380  64.5819210  32.2956170  30.4477140
  66.5447960  49.0415190  30.2258550  67.3373280  48.5464420  30.0184510
  66.8381110  49.7205330  30.8334160  60.8025660  41.6915150   2.9883870
  60.0267760  41.2115590   3.2782440  61.4538590  41.0120800   2.8140030
  54.8191490  42.0034960   3.8659630  53.9876370  41.7483670   4.2656140
  55.4272470  42.0745730   4.6017550  64.8233090  46.0975340   1.7683000
  64.3614620  45.3262580   2.0970170  65.6358640  46.1241410   2.2735450
  54.7992750  46.0375050   4.0617650  55.1020790  45.1472790   3.8827870
  55.5436340  46.5945270   3.8339900  51.1916450  39.5642500   3.5341720
  51.7632560  38.7964700   3.5345360  51.1917990  39.8631260   2.6248330
  60.2434650  44.3672340   2.9954030  60.1742930  43.4262280   2.8343160
  61.0054510  44.4573750   3.5676600  52.4341320  34.9726860   5.3210650
  52.2544160  34.0752610   5.6013410  52.0321400  35.5198730   5.9957600
  61.2739820  37.1742720   3.2222960  61.6504640  36.3014600   3.1096630
  61.1759330  37.5101420   2.3313400  53.0527990  37.4687360   3.9292990
  53.7338100  37.7325730   4.5480390  52.7376040  36.6288230   4.2631000
  57.2452560  38.5154720   3.0165580  57.7530780  39.0135690   3.6570600
  57.7765800  37.7389920   2.8404940  69.3463490  36.6859910   6.7194930
  68.6415660  37.0741620   6.2010040  69.6121410  37.3810200   7.3215860
  55.5288660  33.1553280   7.2829000  55.5307100  33.6725670   6.4774900
  54.6992970  32.6783460   7.2598930  56.7791510  42.7948460   5.4602500
  56.4460890  43.4217380   6.1023570  56.9558190  43.3210340   4.6804170
  65.2925420  36.6093540   2.9278840  64.5880990  36.8978430   3.5081950
  65.6537580  37.4193650   2.5678400  55.2103990  34.8663240   5.2899450
  55.5520800  35.7105290   4.9953320  54.2719800  35.0146980   5.4064790
  55.9910610  44.7629260   7.2751680  56.6084610  45.4380340   6.9936130
  55.1303730  45.1717240   7.1839180  66.9088200  46.2268670   5.1906320
  66.2251720  46.8967780   5.1822990  67.4482490  46.4249320   4.4251180
  68.3612340  36.0548330   3.3188050  67.4137250  36.0887310   3.4503480
  68.6862330  36.8687280   3.7037410  64.4446940  48.0712800   3.9051500
  64.4574100  47.6675090   3.0373760  63.8922160  48.8460090   3.8012930
  63.8432380  42.9742640   5.2334110  64.2601170  42.7602750   4.3987570
  64.5672200  43.2315430   5.8042730  67.7894480  41.3729860   5.3250350
  66.9613110  41.4422950   4.8500480  68.3844960  41.9584170   4.8566180
  64.7536490  38.1599180   6.2705220  64.3407670  38.9852890   6.5245210
  64.0212440  37.5744220   6.0781580  57.3550980  44.6326640   3.2963100
  57.0579270  44.0272110   2.6170880  58.3050800  44.6703950   3.1852460
  55.5997900  37.7202290   4.9122930  56.1512490  37.8297630   4.1376180
  56.1141410  38.0939890   5.6278160  65.4436590  48.2058510   6.9586200
  64.9667150  49.0130700   6.7658810  64.7598380  47.5536840   7.1112410
  56.4469410  44.3708330   9.9470900  55.5497940  44.5948300  10.1944300
  56.4722280  44.4943270   8.9982300  55.2740630  41.2421650   8.5228270
  55.1348400  42.1144450   8.8915670  54.3921990  40.8994460   8.3776210
  57.0720980  47.1843350  10.7313420  57.0436410  47.5886300   9.8641850
  56.9085950  46.2553710  10.5685020  69.0235800  47.9670450  12.0277590
  69.4995520  48.4453340  12.7066670  69.6442960  47.8987940  11.3023090
  51.2259280  43.0119200   4.4399180  51.3039700  43.1467970   3.4954900
  51.8400960  42.3035090   4.6327300  68.4269050  45.1583300   9.1877600
  68.5532110  44.9195180   8.2694780  68.4690430  44.3267840   9.6599680
  62.2885790  48.8611300   7.7572410  62.8030460  48.7719310   8.5594840
  61.4454870  49.2071000   8.0500320  68.2793060  37.2115760  10.1527340
  67.6637330  37.7195430   9.6242800  67.9589480  36.3114090  10.0953280
  51.2818800  44.0533370   6.9793640  51.4449840  43.5838730   6.1613010
  51.7471250  43.5456930   7.6442480  56.0537570  33.1839130   2.0154210
  55.6105720  33.9648670   1.6838730  56.6122560  33.5069020   2.7225150
  60.3407380  36.0507650   7.6189530  59.8786750  36.2590670   8.4309470
  59.9385490  35.2367000   7.3160200  65.3411890  37.2716600   8.7486190
  64.4905480  36.9722350   9.0695260  65.1813680  37.5158610   7.8370010
  62.4361600  38.7718350  10.8484980  62.7615010  37.9382100  10.5087210
  63.2241930  39.2946870  10.9963310  58.0913470  33.7286460   3.8743810
  58.3885800  34.6349290   3.7935830  58.6399030  33.2405240   3.2603380
  58.2851000  39.2058280  10.4095730  58.1894600  38.2653010  10.2596130
  59.1282980  39.4273350  10.0143800  53.4161540  35.6171950   8.5629510
  53.0224930  36.4647160   8.7702290  52.7279940  34.9798320   8.7538150
  59.9906590  35.7006920  11.6326250  59.3004910  35.5079120  12.2672340
  60.7338890  35.9841560  12.1650550  50.7178590  33.5400410   2.5959590
  50.4291640  34.1103270   3.3084570  51.4624350  33.0604860   2.9590820
  62.2669560  39.5405360   4.4680170  61.5350680  40.0492170   4.8170270
  61.8693900  38.7235340   4.1668950  58.7046950  36.2159560   2.8732660
  58.7083010  35.7749510   2.0237200  59.5998070  36.5376890   2.9804480
  54.5549330  36.0986050   1.8326870  54.2149380  36.5761280   2.5893920
  53.7926650  35.6451170   1.4727970  62.7295470  34.9939040   3.8803110
  62.7468210  35.4447690   4.7244960  62.4811050  34.0944680   4.0936550
  66.1566220  32.4071220   9.7189490  66.4811990  31.6760880  10.2447470
  66.1922730  32.0884860   8.8170480  52.8557780  43.4284800   9.1389450
  52.4712570  42.7878470   9.7372410  53.1669970  44.1320920   9.7084180
  59.0054920  40.2761340   4.6198070  59.3725050  39.8019910   5.3659410
  58.8159980  41.1502910   4.9606410  56.7954290  39.3169980   6.9382280
  56.4911360  40.1961960   7.1632640  57.7500750  39.3769770   6.9739720
  66.0824060  42.5196330   3.3275520  66.8023180  43.0151620   2.9371630
  65.8805880  41.8414220   2.6829390  61.4642860  42.5905390   9.2144520
  61.3980170  41.6701060   8.9602110  60.8348000  42.6880830   9.9289160
  52.8518020  40.1572720   8.0853640  52.4932960  40.8226570   8.6726980
  52.5572580  39.3256270   8.4566260  56.0531140  40.6156960  10.9693190
  55.7531280  40.7614140  10.0721010  56.8242380  40.0562250  10.8766580
  61.3959590  45.4125960   8.9648320  61.4104130  44.4806920   8.7467230
  60.6884690  45.4985720   9.6038090  67.6070800  42.0533300   8.3116900
  66.8818990  42.6462080   8.1146290  68.1346260  42.0456840   7.5130270
  60.8293490  47.0543530   6.0588820  61.4735710  47.2602910   6.7362240
  61.1922930  46.2931930   5.6059670  62.1025570  45.0575880   4.7766270
  62.7447800  44.3569040   4.8898440  62.6274920  45.8374320   4.5963160
  63.8763190  45.8570780   7.9802330  64.2119430  46.4437470   8.6580250
  62.9563530  45.7263490   8.2100120  51.4266590  33.6465960   8.7625740
  50.7125110  33.8462880   9.3678350  51.8461630  32.8705530   9.1340540
  51.7139180  47.6346220   9.7492270  51.8230300  46.6940960   9.6087660
  51.0619740  47.9000970   9.1006000  59.7051770  45.9062110  11.1490390
  59.3848640  45.1871350  11.6936080  59.0310130  46.5817180  11.2226450
  62.9205370  36.1388270   6.5127190  63.2886190  35.3183480   6.8406760
  62.0603570  36.1990160   6.9282840  59.8807360  38.7927860   6.7365160
  60.3792610  39.2673680   7.4017010  60.0230310  37.8691380   6.9435190
  67.0874220  35.0095820   7.5793550  66.5847820  35.7501220   7.9187360
  67.9030880  35.3979820   7.2630340  67.3821810  47.4237850   2.7009170
  67.5069230  48.2469020   3.1732980  68.2487370  47.2128580   2.3533320
  54.8539340  49.5169060   2.3726300  55.5901820  48.9684520   2.6434870
  55.2380260  50.3825070   2.2332290  53.8597620  48.7015130  11.5611880
  54.6610350  49.0227180  11.9747280  53.3449440  48.3410710  12.2831790
  62.6962250  44.8095000  11.5087290  62.0900410  44.8326600  10.7683040
  62.3916360  44.0778040  12.0454540  64.1262620  48.5375290  10.1196700
  65.0784370  48.4533310  10.0696940  63.9790840  49.2017000  10.7930490
  51.5795430  41.1888590  10.5047930  52.0834450  40.6095870  11.0764160
  50.8402850  41.4728820  11.0424300  58.6333370  42.5959580  10.0383450
  57.8679040  43.1644580   9.9538120  58.8149330  42.3035790   9.1451680
  65.7756720  44.3264910  10.5958470  66.5166190  44.6640670  10.0925930
  65.0129400  44.4956970  10.0428240  53.6118510  39.3318180  11.3998000
  53.6523850  39.0332050  12.3083230  54.4664010  39.7325790  11.2405520
  55.5524320  37.9110280   9.3672490  55.0220780  37.4201230   8.7395830
  56.2212390  38.3394480   8.8330420  64.4502380  42.3779740   9.1313680
  64.8643400  42.5324820   9.9804100  63.5153380  42.5034960   9.2939460
  64.9224550  39.7175900  11.1352830  65.5045320  38.9628220  11.0473310
  65.0986320  40.2483340  10.3584310  56.0396620  34.8772650   9.4469780
  55.9453490  34.2593400   8.7220650  55.4594010  35.6038940   9.2199690
  58.8058060  33.4345890   6.4797170  58.3575360  33.4570150   5.6342720
  58.1723260  33.0364910   7.0767470  59.2117610  42.3300220   7.1009610
  59.6305720  43.1732950   6.9285850  58.2926240  42.4672260   6.8716390
  61.5481510  40.0616400   8.4847450  61.6677720  39.4657540   9.2242290
  62.4075510  40.0986090   8.0648750  63.8869410  40.6153590   7.0609960
  63.3604630  41.1396210   6.4575100  64.2300750  41.2480980   7.6919690
  57.0625030  48.6353230   8.2167340  56.5246120  49.3599290   7.8976040
  57.3158990  48.1583570   7.4264680  58.3150280  36.6037750   9.7423270
  58.9049970  36.2953600  10.4301090  57.4970520  36.1317500   9.8983170
  63.1343710  36.2203560   9.9756290  62.4459230  35.5585100   9.9106280
  63.8549730  35.7741830  10.4204750  59.9187240  49.8704440   8.4753990
  59.8445940  50.7739580   8.7826360  59.0166080  49.5516340   8.4476060
  51.3214530  47.1979030   1.7787610  51.6517540  46.3300090   1.5466250
  51.7505530  47.4037550   2.6092570  51.8104740  48.0649620   4.5169240
  51.3735730  48.2450420   5.3493390  52.3782420  48.8224240   4.3750960
  67.4466920  47.5666620   8.8046550  66.8468910  47.6259180   8.0610470
  67.5760820  46.6271600   8.9343400  66.1318560  44.2918600   6.9022710
  65.3178400  44.7215760   7.1648500  66.5392760  44.9037010   6.2891760
  52.6805100  40.9622420   5.4161460  53.0478140  40.8749820   6.2957480
  52.1115920  40.1988970   5.3168320  67.4808960  39.4306800   8.4291930
  67.2495050  39.2019550   7.5289880  67.7413510  40.3506350   8.3836820
  52.2321100  37.8731510   9.3219880  51.3377150  37.8398270   9.6613590
  52.7718650  38.0718300  10.0871130  65.9197030  34.6563230  11.2071630
  66.7967210  34.6646630  11.5905630  65.9317870  33.9194070  10.5963980
  67.3660300  38.5092770   2.0959650  67.8897780  38.0155420   1.4649820
  67.9519720  38.6443130   2.8407220  67.5450020  38.5932640   5.6179200
  66.5952730  38.5596180   5.7324190  67.7263030  39.5032750   5.3828970
  52.7360810  32.1479840   3.6703100  53.3837000  31.5977220   3.2298260
  53.1562650  32.4022990   4.4918910  66.6313150  32.3421200   7.0272740
  67.2685370  32.9555340   7.3931930  66.7788040  32.3781860   6.0821970
  52.4892810  32.3035510   6.4128420  52.1407630  32.7599330   7.1786600
  52.1580510  31.4092640   6.4950850  54.0957180  45.4755110  10.5781610
  54.0526810  45.1048020  11.4596070  54.2268190  46.4132680  10.7183430
  57.7963210  47.0314700   6.1791330  57.5554570  47.2989260   5.2921850
  58.7365850  47.2020430   6.2342190  60.0017630  33.4947390   9.9347840
  59.9406520  34.0869220  10.6843250  60.9418010  33.3873350   9.7898100
  62.6392190  33.1517450   9.5740130  63.2532600  33.4696740   8.9121210
  63.1841750  32.6666040  10.1935990  69.0567370  49.0509080   6.9801970
  68.5625650  49.4477950   6.2629100  68.4480660  48.4258290   7.3739250
  53.1613450  31.8311710   9.6879190  53.7096440  31.6499760   8.9245300
  53.2268760  31.0405820  10.2235500  53.9345210  48.4217360   7.6979390
  53.3405530  48.2902060   8.4369430  53.9269050  47.5855500   7.2321490
  63.3800230  31.7149590   5.9009420  62.5060070  32.0484700   5.6982350
  63.2710980  31.2422770   6.7261290  64.2872210  33.9220460   7.2851140
  63.9585570  33.1072220   6.9052870  65.2354510  33.8790270   7.1616830
  66.7406820  49.6932500   4.2588710  66.2809790  50.4448310   3.8846730
  66.1119280  48.9738970   4.2003510  53.5657440  45.7875740   6.6487430
  52.8391500  45.1681030   6.5813380  53.6266590  46.1816350   5.7785510
  57.1702540  48.0020740   3.4336840  57.6867560  47.3908100   2.9085100
  57.8199920  48.5049520   3.9247850  59.9098040  48.8929230   4.2605820
  60.1975850  48.6383530   3.3838830  60.4221260  48.3406590   4.8511390
  61.1275050  32.6319430   4.8402330  60.3446840  33.1064930   5.1199090
  60.8337980  31.7274260   4.7315510  65.6796120  33.3342530   2.8851420
  66.1204210  33.2787630   2.0373020  65.4103710  34.2500540   2.9561600
  59.9770400  49.8145330  11.6274020  60.9037710  49.5789600  11.6709980
  59.9620830  50.6417330  11.1460050  57.1634010  32.4790080  11.3915900
  56.8818280  32.9823680  10.6276720  57.5453710  31.6811830  11.0258030
  63.7649470  31.8943660  11.9696370  63.6514920  32.2138270  12.8647890
  64.5819210  32.2956170  11.6733650  66.5447960  49.0415190  11.4515060
  67.3373280  48.5464420  11.2441020  66.8381110  49.7205330  12.0590670
  62.6707620  21.1392640  57.4305070  62.5901670  20.2247250  57.1596780
  62.2572040  21.6359710  56.7244780  60.8025660  22.9171660  59.3114340
  60.0267760  22.4372100  59.6012910  61.4538590  22.2377310  59.1370500
  64.8233090  27.3231850  58.0913470  64.3614620  26.5519090  58.4200640
  65.6358640  27.3497920  58.5965920  53.2283440  18.1893360  53.9732490
  52.3400140  18.5309330  53.8712370  53.5124630  17.9893680  53.0813320
  51.1916450  20.7899010  59.8572190  51.7632560  20.0221210  59.8575830
  51.1917990  21.0887770  58.9478800  61.0496400  29.6089860  57.7117460
  60.4307840  30.0647360  57.1411900  61.9048180  29.7641320  57.3107160
  60.2434650  25.5928850  59.3184500  60.1742930  24.6518790  59.1573630
  61.0054510  25.6830260  59.8907070  61.2739820  18.3999230  59.5453430
  61.6504640  17.5271110  59.4327100  61.1759330  18.7357930  58.6543870
  55.4044830  16.7724860  55.0070870  55.5111580  17.6728590  55.3139630
  54.4937190  16.7242830  54.7165520  65.0563940  15.8949670  56.4781770
  65.8773560  15.4046240  56.5207250  65.0898020  16.4847330  57.2313610
  57.2452560  19.7411230  59.3396050  57.7530780  20.2392200  59.9801070
  57.7765800  18.9646430  59.1635410  61.9159750  24.4929100  55.1049370
  61.2977020  24.9578550  54.5412090  62.4283000  25.1856580  55.5218880
  65.2925420  17.8350050  59.2509310  64.5880990  18.1234940  59.8312420
  65.6537580  18.6450160  58.8908870  51.2842950  25.1785630  52.4789000
  50.9070930  25.6672730  51.7473900  51.5416020  25.8510910  53.1095530
  68.3612340  17.2804840  59.6418520  67.4137250  17.3143820  59.7733950
  68.6862330  18.0943790  60.0267880  58.8931880  13.5802020  57.9374510
  59.2006860  13.0248910  57.2210010  57.9632580  13.7146480  57.7547500
  64.4446940  29.2969310  60.2281970  64.4574100  28.8931600  59.3604230
  63.8922160  30.0716600  60.1243400  65.7392360  26.0185530  55.3172140
  65.6288690  25.0759860  55.4421560  65.7360610  26.3801170  56.2034900
  61.2812640  21.6450850  54.6734630  60.3541920  21.5788230  54.9023100
  61.4337460  22.5830980  54.5589870  61.2681720  17.9167850  51.6701790
  60.3285390  18.0781810  51.7554250  61.5864980  18.6353530  51.1237780
  65.3109930  23.2071150  55.1769880  64.6922350  22.8690700  54.5296180
  65.2934380  22.5630910  55.8849070  56.8869280  22.1715590  57.4554360
  56.4826280  21.4592840  56.9600260  56.9732400  21.8268830  58.3442400
  57.3550980  25.8583150  59.6193570  57.0579270  25.2528620  58.9401350
  58.3050800  25.8960460  59.5082930  63.4874630  22.4457960  52.1842630
  63.9267910  21.6080390  52.0380450  64.2003050  23.0787360  52.2706770
  61.5970010  27.3854030  56.1523870  62.0365920  28.1278360  55.7379260
  61.5356900  27.6280600  57.0762830  67.0691770  13.7000770  50.4983670
  66.7564430  13.7927600  51.3982740  67.8304240  14.2781800  50.4481100
  53.5873910  21.0660570  54.9561010  53.4671510  21.7922660  54.3442280
  53.2774800  20.2963480  54.4788920  52.4706910  25.9375900  57.1735830
  52.0634990  26.0790490  56.3189430  53.3619920  25.6536060  56.9707040
  64.2640190  30.3723150  53.5086880  64.1041330  30.0826090  54.4068710
  64.0986900  29.5963280  52.9732110  56.7428570  30.1521680  55.2858500
  56.5671050  29.2357220  55.0726300  55.8884310  30.5108970  55.5256300
  63.9666320  27.8810710  52.0684880  63.2731480  27.8788000  51.4087160
  64.7089180  27.4570030  51.6379050  63.5316250  29.5073420  56.1433370
  63.9873200  28.7262800  56.4571990  63.8708770  30.2180240  56.6874550
  56.0537570  14.4095640  58.3384680  55.6105720  15.1905180  58.0069200
  56.6122560  14.7325530  59.0455620  59.1696390  14.0306340  53.2190510
  58.5450570  14.0266210  53.9443820  59.0826510  13.1637300  52.8226480
  58.0913470  14.9542970  60.1974280  58.3885800  15.8605800  60.1166300
  58.6399030  14.4661750  59.5833850  55.8451790  19.5329210  56.0665930
  55.6192710  19.3166380  56.9712550  55.0644320  19.9657670  55.7211900
  63.0749550  19.5392580  54.6656580  62.4758440  20.2628380  54.4820200
  63.6229160  19.4769360  53.8833030  61.6814420  18.1756120  56.6959860
  62.0743990  18.4928320  55.8828550  62.0431270  17.2968000  56.8104380
  50.7178590  14.7656920  58.9190060  50.4291640  15.3359780  59.6315040
  51.4624350  14.2861370  59.2821290  50.9048820  18.7077040  50.1292780
  50.8223490  19.6507800  50.2707770  50.5531880  18.5651950  49.2505130
  58.7046950  17.4416070  59.1963130  58.7083010  17.0006020  58.3467670
  59.5998070  17.7633400  59.3034950  54.5549330  17.3242560  58.1557340
  54.2149380  17.8017790  58.9124390  53.7926650  16.8707680  57.7958440
  58.7667100  18.4428150  52.1869890  58.8879920  18.4014630  53.1355710
  58.3815610  19.3052300  52.0316620  57.7788600  20.7529290  51.5853190
  57.2105500  20.3047540  50.9589100  58.4877600  21.1122070  51.0518340
  51.8695410  16.2461540  57.0722010  51.5842330  15.8817210  57.9100630
  51.8074270  15.5142000  56.4585150  55.3236080  24.7487480  53.8579600
  54.5498340  24.2085100  53.6978320  56.0530710  24.2294090  53.5197360
  66.0824060  23.7452840  59.6505990  66.8023180  24.2408130  59.2602100
  65.8805880  23.0670730  59.0059860  61.5434000  15.1390800  53.7935380
  60.7298610  14.6403970  53.7180690  61.3495950  15.9789050  53.3771730
  64.2582390  19.5110450  52.0897540  65.1462010  19.8227680  51.9148880
  64.2287480  18.6382700  51.6978120  55.3673480  24.4167860  57.4958410
  55.8852150  23.6136120  57.4415300  54.9157500  24.3547000  58.3375240
  60.2542980  25.6834140  52.7685710  60.5958680  26.4276370  52.2729030
  59.4255690  25.9965260  53.1310540  66.5296660  20.8222290  51.5577400
  66.4460380  21.2536510  50.7073840  67.2490850  21.2820640  51.9904220
  67.5583910  27.6764550  54.2859530  66.9160070  27.0220170  54.5603250
  67.1714570  28.0819640  53.5100200  63.1370390  25.0049980  58.1331220
  63.4894210  24.4078110  57.4732590  62.2532720  24.6794210  58.3039470
  59.2233670  25.7647670  55.5401630  59.9104800  26.3116880  55.9209220
  58.4366090  26.3088400  55.5751240  51.3626070  21.3820490  51.0318710
  52.2320920  21.6645290  51.3154630  50.8716390  22.1956360  50.9167520
  58.5260880  22.7693700  55.1526990  58.9823660  23.5798950  55.3787180
  58.1749090  22.4516840  55.9845480  54.4272660  13.1131350  55.6249510
  54.2987290  13.1049250  56.5734430  53.6034680  13.4514440  55.2740520
  65.9481290  26.5681010  50.8235880  65.7218870  25.8511450  51.4160520
  65.5577490  26.3193450  49.9857630  51.7297320  30.5947870  51.5980340
  52.0894960  31.1937210  50.9437610  51.5889660  31.1407760  52.3715370
  65.5297540  24.4852950  52.4850040  65.2419240  24.9465640  53.2727920
  66.3249710  24.0250720  52.7534260  57.7465940  27.9779070  52.4154010
  57.7376040  28.7108760  51.7998520  56.8264300  27.7310650  52.5080970
  53.3472580  23.1993960  53.1600770  52.7400530  23.9392860  53.1696070
  53.8221930  23.2893320  52.3338970  66.2867400  16.3201720  53.6445220
  65.6580560  16.4247390  52.9303450  65.7919320  16.5398500  54.4339100
  60.7325540  28.0407310  51.0779200  60.8337520  27.8371300  50.1481180
  59.8327280  27.7865590  51.2826980  58.2551430  18.5987670  55.0603100
  57.5467580  19.0674010  55.5016710  58.5395910  17.9409680  55.6948290
  62.2866860  15.3238330  56.4998890  62.1634640  15.3424460  55.5508400
  63.2351420  15.3717270  56.6197290  59.3743650  30.5593630  55.7726870
  59.6285150  30.5215020  54.8506240  58.4256130  30.4326960  55.7655120
  56.4586450  16.9072750  52.4353810  57.3076980  17.3442900  52.3694000
  56.0917720  17.2193010  53.2625870  65.3796230  21.4785510  57.3485380
  64.4386370  21.4935740  57.5233070  65.6940300  20.6921470  57.7945680
  55.3577870  23.1605110  50.9089340  56.1241140  23.0486470  51.4714770
  55.4352560  22.4643080  50.2566110  54.0524630  20.5930180  51.5922230
  54.1328220  19.6457690  51.7039630  54.9444380  20.9237060  51.6982890
  67.3821810  28.6494360  59.0239640  67.5069230  29.4725530  59.4963450
  68.2487370  28.4385090  58.6763790  54.8539340  30.7425570  58.6956770
  55.5901820  30.1941030  58.9665340  55.2380260  31.6081580  58.5562760
  51.7384820  26.8099140  54.5698280  50.8124600  27.0520280  54.5603690
  52.2041250  27.6373400  54.4483030  57.9641650  29.9155880  50.5182340
  58.7570260  30.2044710  50.0664130  57.4446000  29.4848050  49.8394820
  67.0171820  29.1426010  51.9419080  66.7313330  28.7291150  51.1273260
  66.8191370  30.0713720  51.8219600  58.4819050  25.1359290  50.3824690
  58.3769690  24.5211640  51.1086070  58.3143270  24.6125180  49.5987700
  61.7221780  24.1979320  50.9866680  61.1731880  24.6448620  51.6309420
  62.3441040  23.6928570  51.5104350  57.3896900  23.1570240  52.8831980
  57.8113320  22.9910110  53.7263370  57.5147740  22.3470470  52.3887120
  59.9024540  22.1807850  50.1309080  60.4230200  21.4656870  49.7650230
  60.5492940  22.8193720  50.4309590  56.2855800  19.2303470  49.8290140
  56.0844860  18.3670830  50.1903480  56.1147850  19.1436830  48.8911740
  63.7644110  14.0411700  52.3577020  64.0446400  13.1979600  52.7136440
  62.9909840  14.2734810  52.8715770  55.0838600  16.3304090  49.8168020
  55.3864500  16.3371520  48.9087170  55.8233190  15.9801950  50.3135680
  58.3023530  15.2738710  50.8024220  57.9545530  14.5962700  50.2226670
  58.5036300  14.8128220  51.6167610  60.4672570  30.2619460  52.4210820
  61.3623360  30.6004430  52.4429580  60.4990200  29.5398870  51.7935100
  54.1068730  25.6346510  50.6497820  54.5443600  26.1776180  51.3055400
  54.5916460  24.8093460  50.6594160  51.3214530  28.4235540  58.1018080
  51.6517540  27.5556600  57.8696720  51.7505530  28.6294060  58.9323040
  55.9176450  26.7544550  55.7620050  55.6171990  26.6309520  56.6623960
  55.8113940  25.8953140  55.3535780  68.6868370  26.5340950  50.4646730
  67.8561330  26.6017600  50.9353960  68.8640200  27.4245070  50.1613590
  68.1424830  23.2788430  52.9680930  68.9043740  23.8485080  53.0740620
  68.1579200  22.7115630  53.7389240  51.6429170  21.8026360  57.1988590
  50.9878010  21.5338000  56.5548290  52.4807120  21.6930840  56.7490570
  69.1484800  24.1338530  57.8122860  69.5193630  23.3505850  57.4058830
  69.7886730  24.8227630  57.6340160  68.1944000  23.5722800  50.1253450
  68.4692840  24.4801680  49.9972670  68.0054740  23.5085330  51.0615440
  64.5919610  16.5967650  51.4207080  65.0104490  16.4098630  50.5803740
  64.2855670  15.7446700  51.7310010  68.0909340  21.5091790  55.1182880
  67.7152940  20.7419720  54.6864170  67.3612460  21.8914490  55.6057810
  50.8567250  19.0125290  53.1413920  49.9531330  19.2755490  52.9665580
  51.3407870  19.2836460  52.3613880  67.3660300  19.7349280  58.4190120
  67.8897780  19.2411930  57.7880290  67.9519720  19.8699640  59.1637690
  53.3994460  18.0690830  51.0508300  54.1086160  17.6474050  50.5655580
  52.6834400  18.1366060  50.4191650  53.0468620  14.1230160  50.0910950
  53.7696750  14.6639100  50.4092170  53.3193140  13.8493580  49.2152490
  66.8560270  18.9922630  54.3582530  67.3519390  18.7593500  55.1431410
  66.6576340  18.1534470  53.9420170  68.2847430  17.6283580  56.8920210
  68.1746710  17.4739620  57.8302480  69.0455020  17.1004520  56.6495620
  69.1737700  15.4591500  50.1326350  70.0987010  15.3272680  49.9244640
  69.1513490  15.5384320  51.0862800  69.2476190  16.2302160  52.7583060
  68.4527690  16.1647280  53.2875970  69.4519470  17.1652800  52.7468410
  66.1894610  30.2693710  56.7521450  66.7853680  29.9478280  56.0755870
  66.4472760  29.7965530  57.5434720  57.1702540  29.2277250  59.7567310
  57.6867560  28.6164610  59.2315570  57.8199920  29.7306030  60.2478320
  65.6796120  14.5599040  59.2081890  66.1204210  14.5044140  58.3603490
  65.4103710  15.4757050  59.2792070  67.5434690  14.1914280  57.2190710
  67.4823090  13.2475500  57.0721730  68.3226720  14.2994370  57.7644170
  51.8487440  30.3306640  56.1814660  51.6809480  29.6977320  56.8796550
  50.9821950  30.5366040  55.8308850  52.4715460  14.1623420  53.6846520
  53.2294820  14.2752300  53.1110550  52.0092630  14.9992620  53.6389950
  59.0129270  16.2762690  56.6748830  58.2003780  15.9019580  56.3344710
  59.5170910  15.5207770  56.9770020  63.5154250  12.9405140  57.9131900
  64.1183620  13.5125350  58.3880420  62.7747240  13.5044580  57.6905800
  66.6588850  13.3426700  53.1872180  66.8539480  14.2410150  53.4539610
  65.8718720  13.1113780  53.6805130  53.4550140  29.0239870  53.6264800
  52.9297760  29.4047900  52.9226760  53.3794720  29.6490640  54.3474510
  54.8440610  14.6887470  52.2248490  55.3733370  13.9017270  52.0956440
  55.4768930  15.3678660  52.4584020  57.0378450  14.4262610  55.2793880
  56.4081190  13.7249920  55.4464010  56.4983590  15.1866740  55.0627040
  68.2115460  30.5827410  54.9478740  68.3867650  29.8965150  54.3039660
  67.5137030  31.1074460  54.5555410  56.0543110  30.9722250  52.5014050
  56.7861930  30.6881530  51.9537940  56.3136780  30.7335530  53.3913430
  55.2157900  27.0886980  52.5060380  54.5866780  27.5572080  53.0546210
  55.3305730  26.2436200  52.9406570  62.6707620  21.1392640  38.6561580
  62.5901670  20.2247250  38.3853290  62.2572040  21.6359710  37.9501290
  60.8025660  22.9171660  40.5370850  60.0267760  22.4372100  40.8269420
  61.4538590  22.2377310  40.3627010  64.8233090  27.3231850  39.3169980
  64.3614620  26.5519090  39.6457150  65.6358640  27.3497920  39.8222430
  53.2283440  18.1893360  35.1989000  52.3400140  18.5309330  35.0968880
  53.5124630  17.9893680  34.3069830  61.0496400  29.6089860  38.9373970
  60.4307840  30.0647360  38.3668410  61.9048180  29.7641320  38.5363670
  60.2434650  25.5928850  40.5441010  60.1742930  24.6518790  40.3830140
  61.0054510  25.6830260  41.1163580  61.2739820  18.3999230  40.7709940
  61.6504640  17.5271110  40.6583610  61.1759330  18.7357930  39.8800380
  55.4044830  16.7724860  36.2327380  55.5111580  17.6728590  36.5396140
  54.4937190  16.7242830  35.9422030  65.0563940  15.8949670  37.7038280
  65.8773560  15.4046240  37.7463760  65.0898020  16.4847330  38.4570120
  69.3463490  17.9116420  44.2681910  68.6415660  18.2998130  43.7497020
  69.6121410  18.6066710  44.8702840  55.5288660  14.3809790  44.8315980
  55.5307100  14.8982180  44.0261880  54.6992970  13.9039970  44.8085910
  61.9159750  24.4929100  36.3305880  61.2977020  24.9578550  35.7668600
  62.4283000  25.1856580  36.7475390  65.2925420  17.8350050  40.4765820
  64.5880990  18.1234940  41.0568930  65.6537580  18.6450160  40.1165380
  55.2103990  16.0919750  42.8386430  55.5520800  16.9361800  42.5440300
  54.2719800  16.2403490  42.9551770  51.2842950  25.1785630  33.7045510
  50.9070930  25.6672730  32.9730410  51.5416020  25.8510910  34.3352040
  66.9088200  27.4525180  42.7393300  66.2251720  28.1224290  42.7309970
  67.4482490  27.6505830  41.9738160  68.3612340  17.2804840  40.8675030
  67.4137250  17.3143820  40.9990460  68.6862330  18.0943790  41.2524390
  58.8931880  13.5802020  39.1631020  59.2006860  13.0248910  38.4466520
  57.9632580  13.7146480  38.9804010  65.7392360  26.0185530  36.5428650
  65.6288690  25.0759860  36.6678070  65.7360610  26.3801170  37.4291410
  63.8432380  24.1999150  42.7821090  64.2601170  23.9859260  41.9474550
  64.5672200  24.4571940  43.3529710  61.2812640  21.6450850  35.8991140
  60.3541920  21.5788230  36.1279610  61.4337460  22.5830980  35.7846380
  61.2681720  17.9167850  32.8958300  60.3285390  18.0781810  32.9810760
  61.5864980  18.6353530  32.3494290  67.7894480  22.5986370  42.8737330
  66.9613110  22.6679460  42.3987460  68.3844960  23.1840680  42.4053160
  65.3109930  23.2071150  36.4026390  64.6922350  22.8690700  35.7552690
  65.2934380  22.5630910  37.1105580  64.7536490  19.3855690  43.8192200
  64.3407670  20.2109400  44.0732190  64.0212440  18.8000730  43.6268560
  56.8869280  22.1715590  38.6810870  56.4826280  21.4592840  38.1856770
  56.9732400  21.8268830  39.5698910  65.4436590  29.4315020  44.5073180
  64.9667150  30.2387210  44.3145790  64.7598380  28.7793350  44.6599390
  56.4469410  25.5964840  47.4957880  55.5497940  25.8204810  47.7431280
  56.4722280  25.7199780  46.5469280  63.4874630  22.4457960  33.4099140
  63.9267910  21.6080390  33.2636960  64.2003050  23.0787360  33.4963280
  61.5970010  27.3854030  37.3780380  62.0365920  28.1278360  36.9635770
  61.5356900  27.6280600  38.3019340  57.0720980  28.4099860  48.2800400
  57.0436410  28.8142810  47.4128830  56.9085950  27.4810220  48.1172000
  67.0691770  13.7000770  31.7240180  66.7564430  13.7927600  32.6239250
  67.8304240  14.2781800  31.6737610  53.5873910  21.0660570  36.1817520
  53.4671510  21.7922660  35.5698790  53.2774800  20.2963480  35.7045430
  69.0235800  29.1926960  49.5764570  69.4995520  29.6709850  50.2553650
  69.6442960  29.1244450  48.8510070  68.4269050  26.3839810  46.7364580
  68.5532110  26.1451690  45.8181760  68.4690430  25.5524350  47.2086660
  64.2640190  30.3723150  34.7343390  64.1041330  30.0826090  35.6325220
  64.0986900  29.5963280  34.1988620  56.7428570  30.1521680  36.5115010
  56.5671050  29.2357220  36.2982810  55.8884310  30.5108970  36.7512810
  63.9666320  27.8810710  33.2941390  63.2731480  27.8788000  32.6343670
  64.7089180  27.4570030  32.8635560  63.5316250  29.5073420  37.3689880
  63.9873200  28.7262800  37.6828500  63.8708770  30.2180240  37.9131060
  68.2793060  18.4372270  47.7014320  67.6637330  18.9451940  47.1729780
  67.9589480  17.5370600  47.6440260  56.0537570  14.4095640  39.5641190
  55.6105720  15.1905180  39.2325710  56.6122560  14.7325530  40.2712130
  60.3407380  17.2764160  45.1676510  59.8786750  17.4847180  45.9796450
  59.9385490  16.4623510  44.8647180  65.3411890  18.4973110  46.2973170
  64.4905480  18.1978860  46.6182240  65.1813680  18.7415120  45.3856990
  62.4361600  19.9974860  48.3971960  62.7615010  19.1638610  48.0574190
  63.2241930  20.5203380  48.5450290  59.1696390  14.0306340  34.4447020
  58.5450570  14.0266210  35.1700330  59.0826510  13.1637300  34.0482990
  58.0913470  14.9542970  41.4230790  58.3885800  15.8605800  41.3422810
  58.6399030  14.4661750  40.8090360  55.8451790  19.5329210  37.2922440
  55.6192710  19.3166380  38.1969060  55.0644320  19.9657670  36.9468410
  63.0749550  19.5392580  35.8913090  62.4758440  20.2628380  35.7076710
  63.6229160  19.4769360  35.1089540  58.2851000  20.4314790  47.9582710
  58.1894600  19.4909520  47.8083110  59.1282980  20.6529860  47.5630780
  61.6814420  18.1756120  37.9216370  62.0743990  18.4928320  37.1085060
  62.0431270  17.2968000  38.0360890  53.4161540  16.8428460  46.1116490
  53.0224930  17.6903670  46.3189270  52.7279940  16.2054830  46.3025130
  59.9906590  16.9263430  49.1813230  59.3004910  16.7335630  49.8159320
  60.7338890  17.2098070  49.7137530  50.9048820  18.7077040  31.3549290
  50.8223490  19.6507800  31.4964280  50.5531880  18.5651950  30.4761640
  62.2669560  20.7661870  42.0167150  61.5350680  21.2748680  42.3657250
  61.8693900  19.9491850  41.7155930  58.7046950  17.4416070  40.4219640
  58.7083010  17.0006020  39.5724180  59.5998070  17.7633400  40.5291460
  54.5549330  17.3242560  39.3813850  54.2149380  17.8017790  40.1380900
  53.7926650  16.8707680  39.0214950  58.7667100  18.4428150  33.4126400
  58.8879920  18.4014630  34.3612220  58.3815610  19.3052300  33.2573130
  62.7295470  16.2195550  41.4290090  62.7468210  16.6704200  42.2731940
  62.4811050  15.3201190  41.6423530  57.7788600  20.7529290  32.8109700
  57.2105500  20.3047540  32.1845610  58.4877600  21.1122070  32.2774850
  66.1566220  13.6327730  47.2676470  66.4811990  12.9017390  47.7934450
  66.1922730  13.3141370  46.3657460  51.8695410  16.2461540  38.2978520
  51.5842330  15.8817210  39.1357140  51.8074270  15.5142000  37.6841660
  55.3236080  24.7487480  35.0836110  54.5498340  24.2085100  34.9234830
  56.0530710  24.2294090  34.7453870  66.0824060  23.7452840  40.8762500
  66.8023180  24.2408130  40.4858610  65.8805880  23.0670730  40.2316370
  61.5434000  15.1390800  35.0191890  60.7298610  14.6403970  34.9437200
  61.3495950  15.9789050  34.6028240  61.4642860  23.8161900  46.7631500
  61.3980170  22.8957570  46.5089090  60.8348000  23.9137340  47.4776140
  64.2582390  19.5110450  33.3154050  65.1462010  19.8227680  33.1405390
  64.2287480  18.6382700  32.9234630  60.2542980  25.6834140  33.9942220
  60.5958680  26.4276370  33.4985540  59.4255690  25.9965260  34.3567050
  56.0531140  21.8413470  48.5180170  55.7531280  21.9870650  47.6207990
  56.8242380  21.2818760  48.4253560  61.3959590  26.6382470  46.5135300
  61.4104130  25.7063430  46.2954210  60.6884690  26.7242230  47.1525070
  66.5296660  20.8222290  32.7833910  66.4460380  21.2536510  31.9330350
  67.2490850  21.2820640  33.2160730  67.6070800  23.2789810  45.8603880
  66.8818990  23.8718590  45.6633270  68.1346260  23.2713350  45.0617250
  67.5583910  27.6764550  35.5116040  66.9160070  27.0220170  35.7859760
  67.1714570  28.0819640  34.7356710  63.1370390  25.0049980  39.3587730
  63.4894210  24.4078110  38.6989100  62.2532720  24.6794210  39.5295980
  59.2233670  25.7647670  36.7658140  59.9104800  26.3116880  37.1465730
  58.4366090  26.3088400  36.8007750  51.3626070  21.3820490  32.2575220
  52.2320920  21.6645290  32.5411140  50.8716390  22.1956360  32.1424030
  58.5260880  22.7693700  36.3783500  58.9823660  23.5798950  36.6043690
  58.1749090  22.4516840  37.2101990  54.4272660  13.1131350  36.8506020
  54.2987290  13.1049250  37.7990940  53.6034680  13.4514440  36.4997030
  62.1025570  26.2832390  42.3253250  62.7447800  25.5825550  42.4385420
  62.6274920  27.0630830  42.1450140  65.9481290  26.5681010  32.0492390
  65.7218870  25.8511450  32.6417030  65.5577490  26.3193450  31.2114140
  63.8763190  27.0827290  45.5289310  64.2119430  27.6693980  46.2067230
  62.9563530  26.9520000  45.7587100  51.7297320  30.5947870  32.8236850
  52.0894960  31.1937210  32.1694120  51.5889660  31.1407760  33.5971880
  65.5297540  24.4852950  33.7106550  65.2419240  24.9465640  34.4984430
  66.3249710  24.0250720  33.9790770  59.7051770  27.1318620  48.6977370
  59.3848640  26.4127860  49.2423060  59.0310130  27.8073690  48.7713430
  57.7465940  27.9779070  33.6410520  57.7376040  28.7108760  33.0255030
  56.8264300  27.7310650  33.7337480  53.3472580  23.1993960  34.3857280
  52.7400530  23.9392860  34.3952580  53.8221930  23.2893320  33.5595480
  62.9205370  17.3644780  44.0614170  63.2886190  16.5439990  44.3893740
  62.0603570  17.4246670  44.4769820  66.2867400  16.3201720  34.8701730
  65.6580560  16.4247390  34.1559960  65.7919320  16.5398500  35.6595610
  60.7325540  28.0407310  32.3035710  60.8337520  27.8371300  31.3737690
  59.8327280  27.7865590  32.5083490  58.2551430  18.5987670  36.2859610
  57.5467580  19.0674010  36.7273220  58.5395910  17.9409680  36.9204800
  62.2866860  15.3238330  37.7255400  62.1634640  15.3424460  36.7764910
  63.2351420  15.3717270  37.8453800  59.3743650  30.5593630  36.9983380
  59.6285150  30.5215020  36.0762750  58.4256130  30.4326960  36.9911630
  56.4586450  16.9072750  33.6610320  57.3076980  17.3442900  33.5950510
  56.0917720  17.2193010  34.4882380  67.0874220  16.2352330  45.1280530
  66.5847820  16.9757730  45.4674340  67.9030880  16.6236330  44.8117320
  65.3796230  21.4785510  38.5741890  64.4386370  21.4935740  38.7489580
  65.6940300  20.6921470  39.0202190  55.3577870  23.1605110  32.1345850
  56.1241140  23.0486470  32.6971280  55.4352560  22.4643080  31.4822620
  54.0524630  20.5930180  32.8178740  54.1328220  19.6457690  32.9296140
  54.9444380  20.9237060  32.9239400  67.3821810  28.6494360  40.2496150
  67.5069230  29.4725530  40.7219960  68.2487370  28.4385090  39.9020300
  51.7384820  26.8099140  35.7954790  50.8124600  27.0520280  35.7860200
  52.2041250  27.6373400  35.6739540  53.8597620  29.9271640  49.1098860
  54.6610350  30.2483690  49.5234260  53.3449440  29.5667220  49.8318770
  57.9641650  29.9155880  31.7438850  58.7570260  30.2044710  31.2920640
  57.4446000  29.4848050  31.0651330  62.6962250  26.0351510  49.0574270
  62.0900410  26.0583110  48.3170020  62.3916360  25.3034550  49.5941520
  64.1262620  29.7631800  47.6683680  65.0784370  29.6789820  47.6183920
  63.9790840  30.4273510  48.3417470  67.0171820  29.1426010  33.1675590
  66.7313330  28.7291150  32.3529770  66.8191370  30.0713720  33.0476110
  51.5795430  22.4145100  48.0534910  52.0834450  21.8352380  48.6251140
  50.8402850  22.6985330  48.5911280  58.4819050  25.1359290  31.6081200
  58.3769690  24.5211640  32.3342580  58.3143270  24.6125180  30.8244210
  58.6333370  23.8216090  47.5870430  57.8679040  24.3901090  47.5025100
  58.8149330  23.5292300  46.6938660  61.7221780  24.1979320  32.2123190
  61.1731880  24.6448620  32.8565930  62.3441040  23.6928570  32.7360860
  65.7756720  25.5521420  48.1445450  66.5166190  25.8897180  47.6412910
  65.0129400  25.7213480  47.5915220  53.6118510  20.5574690  48.9484980
  53.6523850  20.2588560  49.8570210  54.4664010  20.9582300  48.7892500
  57.3896900  23.1570240  34.1088490  57.8113320  22.9910110  34.9519880
  57.5147740  22.3470470  33.6143630  59.9024540  22.1807850  31.3565590
  60.4230200  21.4656870  30.9906740  60.5492940  22.8193720  31.6566100
  64.4502380  23.6036250  46.6800660  64.8643400  23.7581330  47.5291080
  63.5153380  23.7291470  46.8426440  64.9224550  20.9432410  48.6839810
  65.5045320  20.1884730  48.5960290  65.0986320  21.4739850  47.9071290
  56.0396620  16.1029160  46.9956760  55.9453490  15.4849910  46.2707630
  55.4594010  16.8295450  46.7686670  58.8058060  14.6602400  44.0284150
  58.3575360  14.6826660  43.1829700  58.1723260  14.2621420  44.6254450
  61.5481510  21.2872910  46.0334430  61.6677720  20.6914050  46.7729270
  62.4075510  21.3242600  45.6135730  63.8869410  21.8410100  44.6096940
  63.3604630  22.3652720  44.0062080  64.2300750  22.4737490  45.2406670
  56.2855800  19.2303470  31.0546650  56.0844860  18.3670830  31.4159990
  56.1147850  19.1436830  30.1168250  58.3150280  17.8294260  47.2910250
  58.9049970  17.5210110  47.9788070  57.4970520  17.3574010  47.4470150
  63.1343710  17.4460070  47.5243270  62.4459230  16.7841610  47.4593260
  63.8549730  16.9998340  47.9691730  63.7644110  14.0411700  33.5833530
  64.0446400  13.1979600  33.9392950  62.9909840  14.2734810  34.0972280
  55.0838600  16.3304090  31.0424530  55.3864500  16.3371520  30.1343680
  55.8233190  15.9801950  31.5392190  58.3023530  15.2738710  32.0280730
  57.9545530  14.5962700  31.4483180  58.5036300  14.8128220  32.8424120
  60.4672570  30.2619460  33.6467330  61.3623360  30.6004430  33.6686090
  60.4990200  29.5398870  33.0191610  54.1068730  25.6346510  31.8754330
  54.5443600  26.1776180  32.5311910  54.5916460  24.8093460  31.8850670
  51.3214530  28.4235540  39.3274590  51.6517540  27.5556600  39.0953230
  51.7505530  28.6294060  40.1579550  55.9176450  26.7544550  36.9876560
  55.6171990  26.6309520  37.8880470  55.8113940  25.8953140  36.5792290
  67.4466920  28.7923130  46.3533530  66.8468910  28.8515690  45.6097450
  67.5760820  27.8528110  46.4830380  68.6868370  26.5340950  31.6903240
  67.8561330  26.6017600  32.1610470  68.8640200  27.4245070  31.3870100
  68.1424830  23.2788430  34.1937440  68.9043740  23.8485080  34.2997130
  68.1579200  22.7115630  34.9645750  51.6429170  21.8026360  38.4245100
  50.9878010  21.5338000  37.7804800  52.4807120  21.6930840  37.9747080
  69.1484800  24.1338530  39.0379370  69.5193630  23.3505850  38.6315340
  69.7886730  24.8227630  38.8596670  66.1318560  25.5175110  44.4509690
  65.3178400  25.9472270  44.7135480  66.5392760  26.1293520  43.8378740
  68.1944000  23.5722800  31.3509960  68.4692840  24.4801680  31.2229180
  68.0054740  23.5085330  32.2871950  64.5919610  16.5967650  32.6463590
  65.0104490  16.4098630  31.8060250  64.2855670  15.7446700  32.9566520
  68.0909340  21.5091790  36.3439390  67.7152940  20.7419720  35.9120680
  67.3612460  21.8914490  36.8314320  67.4808960  20.6563310  45.9778910
  67.2495050  20.4276060  45.0776860  67.7413510  21.5762860  45.9323800
  52.2321100  19.0988020  46.8706860  51.3377150  19.0654780  47.2100570
  52.7718650  19.2974810  47.6358110  65.9197030  15.8819740  48.7558610
  66.7967210  15.8903140  49.1392610  65.9317870  15.1450580  48.1450960
  50.8567250  19.0125290  34.3670430  49.9531330  19.2755490  34.1922090
  51.3407870  19.2836460  33.5870390  67.3660300  19.7349280  39.6446630
  67.8897780  19.2411930  39.0136800  67.9519720  19.8699640  40.3894200
  67.5450020  19.8189150  43.1666180  66.5952730  19.7852690  43.2811170
  67.7263030  20.7289260  42.9315950  53.3994460  18.0690830  32.2764810
  54.1086160  17.6474050  31.7912090  52.6834400  18.1366060  31.6448160
  53.0468620  14.1230160  31.3167460  53.7696750  14.6639100  31.6348680
  53.3193140  13.8493580  30.4409000  66.8560270  18.9922630  35.5839040
  67.3519390  18.7593500  36.3687920  66.6576340  18.1534470  35.1676680
  52.7360810  13.3736350  41.2190080  53.3837000  12.8233730  40.7785240
  53.1562650  13.6279500  42.0405890  68.2847430  17.6283580  38.1176720
  68.1746710  17.4739620  39.0558990  69.0455020  17.1004520  37.8752130
  66.6313150  13.5677710  44.5759720  67.2685370  14.1811850  44.9418910
  66.7788040  13.6038370  43.6308950  69.1737700  15.4591500  31.3582860
  70.0987010  15.3272680  31.1501150  69.1513490  15.5384320  32.3119310
  69.2476190  16.2302160  33.9839570  68.4527690  16.1647280  34.5132480
  69.4519470  17.1652800  33.9724920  66.1894610  30.2693710  37.9777960
  66.7853680  29.9478280  37.3012380  66.4472760  29.7965530  38.7691230
  54.0957180  26.7011620  48.1268590  54.0526810  26.3304530  49.0083050
  54.2268190  27.6389190  48.2670410  60.0017630  14.7203900  47.4834820
  59.9406520  15.3125730  48.2330230  60.9418010  14.6129860  47.3385080
  62.6392190  14.3773960  47.1227110  63.2532600  14.6953250  46.4608190
  63.1841750  13.8922550  47.7422970  69.0567370  30.2765590  44.5288950
  68.5625650  30.6734460  43.8116080  68.4480660  29.6514800  44.9226230
  53.1613450  13.0568220  47.2366170  53.7096440  12.8756270  46.4732280
  53.2268760  12.2662330  47.7722480  63.3800230  12.9406100  43.4496400
  62.5060070  13.2741210  43.2469330  63.2710980  12.4679280  44.2748270
  64.2872210  15.1476970  44.8338120  63.9585570  14.3328730  44.4539850
  65.2354510  15.1046780  44.7103810  66.7406820  30.9189010  41.8075690
  66.2809790  31.6704820  41.4333710  66.1119280  30.1995480  41.7490490
  61.1275050  13.8575940  42.3889310  60.3446840  14.3321440  42.6686070
  60.8337980  12.9530770  42.2802490  65.6796120  14.5599040  40.4338400
  66.1204210  14.5044140  39.5860000  65.4103710  15.4757050  40.5048580
  67.5434690  14.1914280  38.4447220  67.4823090  13.2475500  38.2978240
  68.3226720  14.2994370  38.9900680  51.8487440  30.3306640  37.4071170
  51.6809480  29.6977320  38.1053060  50.9821950  30.5366040  37.0565360
  52.4715460  14.1623420  34.9103030  53.2294820  14.2752300  34.3367060
  52.0092630  14.9992620  34.8646460  59.0129270  16.2762690  37.9005340
  58.2003780  15.9019580  37.5601220  59.5170910  15.5207770  38.2026530
  63.5154250  12.9405140  39.1388410  64.1183620  13.5125350  39.6136930
  62.7747240  13.5044580  38.9162310  66.6588850  13.3426700  34.4128690
  66.8539480  14.2410150  34.6796120  65.8718720  13.1113780  34.9061640
  53.4550140  29.0239870  34.8521310  52.9297760  29.4047900  34.1483270
  53.3794720  29.6490640  35.5731020  54.8440610  14.6887470  33.4505000
  55.3733370  13.9017270  33.3212950  55.4768930  15.3678660  33.6840530
  57.0378450  14.4262610  36.5050390  56.4081190  13.7249920  36.6720520
  56.4983590  15.1866740  36.2883550  59.9770400  31.0401840  49.1761000
  60.9037710  30.8046110  49.2196960  59.9620830  31.8673840  48.6947030
  68.2115460  30.5827410  36.1735250  68.3867650  29.8965150  35.5296170
  67.5137030  31.1074460  35.7811920  57.1634010  13.7046590  48.9402880
  56.8818280  14.2080190  48.1763700  57.5453710  12.9068340  48.5745010
  56.0543110  30.9722250  33.7270560  56.7861930  30.6881530  33.1794450
  56.3136780  30.7335530  34.6169940  55.2157900  27.0886980  33.7316890
  54.5866780  27.5572080  34.2802720  55.3305730  26.2436200  34.1663080
  63.7649470  13.1200170  49.5183350  63.6514920  13.4394780  50.4134870
  64.5819210  13.5212680  49.2220630  66.5447960  30.2671700  49.0002040
  67.3373280  29.7720930  48.7928000  66.8381110  30.9461840  49.6077650
  62.6707620  21.1392640  19.8818090  62.5901670  20.2247250  19.6109800
  62.2572040  21.6359710  19.1757800  60.8025660  22.9171660  21.7627360
  60.0267760  22.4372100  22.0525930  61.4538590  22.2377310  21.5883520
  54.8191490  23.2291470  22.6403120  53.9876370  22.9740180  23.0399630
  55.4272470  23.3002240  23.3761040  64.8233090  27.3231850  20.5426490
  64.3614620  26.5519090  20.8713660  65.6358640  27.3497920  21.0478940
  54.7992750  27.2631560  22.8361140  55.1020790  26.3729300  22.6571360
  55.5436340  27.8201780  22.6083390  53.2283440  18.1893360  16.4245510
  52.3400140  18.5309330  16.3225390  53.5124630  17.9893680  15.5326340
  51.1916450  20.7899010  22.3085210  51.7632560  20.0221210  22.3088850
  51.1917990  21.0887770  21.3991820  61.0496400  29.6089860  20.1630480
  60.4307840  30.0647360  19.5924920  61.9048180  29.7641320  19.7620180
  60.2434650  25.5928850  21.7697520  60.1742930  24.6518790  21.6086650
  61.0054510  25.6830260  22.3420090  52.4341320  16.1983370  24.0954140
  52.2544160  15.3009120  24.3756900  52.0321400  16.7455240  24.7701090
  61.2739820  18.3999230  21.9966450  61.6504640  17.5271110  21.8840120
  61.1759330  18.7357930  21.1056890  55.4044830  16.7724860  17.4583890
  55.5111580  17.6728590  17.7652650  54.4937190  16.7242830  17.1678540
  65.0563940  15.8949670  18.9294790  65.8773560  15.4046240  18.9720270
  65.0898020  16.4847330  19.6826630  53.0527990  18.6943870  22.7036480
  53.7338100  18.9582240  23.3223880  52.7376040  17.8544740  23.0374490
  57.2452560  19.7411230  21.7909070  57.7530780  20.2392200  22.4314090
  57.7765800  18.9646430  21.6148430  69.3463490  17.9116420  25.4938420
  68.6415660  18.2998130  24.9753530  69.6121410  18.6066710  26.0959350
  55.5288660  14.3809790  26.0572490  55.5307100  14.8982180  25.2518390
  54.6992970  13.9039970  26.0342420  61.9159750  24.4929100  17.5562390
  61.2977020  24.9578550  16.9925110  62.4283000  25.1856580  17.9731900
  56.7791510  24.0204970  24.2345990  56.4460890  24.6473890  24.8767060
  56.9558190  24.5466850  23.4547660  65.2925420  17.8350050  21.7022330
  64.5880990  18.1234940  22.2825440  65.6537580  18.6450160  21.3421890
  55.2103990  16.0919750  24.0642940  55.5520800  16.9361800  23.7696810
  54.2719800  16.2403490  24.1808280  55.9910610  25.9885770  26.0495170
  56.6084610  26.6636850  25.7679620  55.1303730  26.3973750  25.9582670
  51.2842950  25.1785630  14.9302020  50.9070930  25.6672730  14.1986920
  51.5416020  25.8510910  15.5608550  66.9088200  27.4525180  23.9649810
  66.2251720  28.1224290  23.9566480  67.4482490  27.6505830  23.1994670
  68.3612340  17.2804840  22.0931540  67.4137250  17.3143820  22.2246970
  68.6862330  18.0943790  22.4780900  58.8931880  13.5802020  20.3887530
  59.2006860  13.0248910  19.6723030  57.9632580  13.7146480  20.2060520
  64.4446940  29.2969310  22.6794990  64.4574100  28.8931600  21.8117250
  63.8922160  30.0716600  22.5756420  65.7392360  26.0185530  17.7685160
  65.6288690  25.0759860  17.8934580  65.7360610  26.3801170  18.6547920
  63.8432380  24.1999150  24.0077600  64.2601170  23.9859260  23.1731060
  64.5672200  24.4571940  24.5786220  61.2812640  21.6450850  17.1247650
  60.3541920  21.5788230  17.3536120  61.4337460  22.5830980  17.0102890
  61.2681720  17.9167850  14.1214810  60.3285390  18.0781810  14.2067270
  61.5864980  18.6353530  13.5750800  67.7894480  22.5986370  24.0993840
  66.9613110  22.6679460  23.6243970  68.3844960  23.1840680  23.6309670
  65.3109930  23.2071150  17.6282900  64.6922350  22.8690700  16.9809200
  65.2934380  22.5630910  18.3362090  64.7536490  19.3855690  25.0448710
  64.3407670  20.2109400  25.2988700  64.0212440  18.8000730  24.8525070
  56.8869280  22.1715590  19.9067380  56.4826280  21.4592840  19.4113280
  56.9732400  21.8268830  20.7955420  57.3550980  25.8583150  22.0706590
  57.0579270  25.2528620  21.3914370  58.3050800  25.8960460  21.9595950
  55.5997900  18.9458800  23.6866420  56.1512490  19.0554140  22.9119670
  56.1141410  19.3196400  24.4021650  65.4436590  29.4315020  25.7329690
  64.9667150  30.2387210  25.5402300  64.7598380  28.7793350  25.8855900
  56.4469410  25.5964840  28.7214390  55.5497940  25.8204810  28.9687790
  56.4722280  25.7199780  27.7725790  63.4874630  22.4457960  14.6355650
  63.9267910  21.6080390  14.4893470  64.2003050  23.0787360  14.7219790
  55.2740630  22.4678160  27.2971760  55.1348400  23.3400960  27.6659160
  54.3921990  22.1250970  27.1519700  61.5970010  27.3854030  18.6036890
  62.0365920  28.1278360  18.1892280  61.5356900  27.6280600  19.5275850
  57.0720980  28.4099860  29.5056910  57.0436410  28.8142810  28.6385340
  56.9085950  27.4810220  29.3428510  67.0691770  13.7000770  12.9496690
  66.7564430  13.7927600  13.8495760  67.8304240  14.2781800  12.8994120
  53.5873910  21.0660570  17.4074030  53.4671510  21.7922660  16.7955300
  53.2774800  20.2963480  16.9301940  69.0235800  29.1926960  30.8021080
  69.4995520  29.6709850  31.4810160  69.6442960  29.1244450  30.0766580
  51.2259280  24.2375710  23.2142670  51.3039700  24.3724480  22.2698390
  51.8400960  23.5291600  23.4070790  52.4706910  25.9375900  19.6248850
  52.0634990  26.0790490  18.7702450  53.3619920  25.6536060  19.4220060
  68.4269050  26.3839810  27.9621090  68.5532110  26.1451690  27.0438270
  68.4690430  25.5524350  28.4343170  62.2885790  30.0867810  26.5315900
  62.8030460  29.9975820  27.3338330  61.4454870  30.4327510  26.8243810
  64.2640190  30.3723150  15.9599900  64.1041330  30.0826090  16.8581730
  64.0986900  29.5963280  15.4245130  56.7428570  30.1521680  17.7371520
  56.5671050  29.2357220  17.5239320  55.8884310  30.5108970  17.9769320
  63.9666320  27.8810710  14.5197900  63.2731480  27.8788000  13.8600180
  64.7089180  27.4570030  14.0892070  63.5316250  29.5073420  18.5946390
  63.9873200  28.7262800  18.9085010  63.8708770  30.2180240  19.1387570
  68.2793060  18.4372270  28.9270830  67.6637330  18.9451940  28.3986290
  67.9589480  17.5370600  28.8696770  51.2818800  25.2789880  25.7537130
  51.4449840  24.8095240  24.9356500  51.7471250  24.7713440  26.4185970
  56.0537570  14.4095640  20.7897700  55.6105720  15.1905180  20.4582220
  56.6122560  14.7325530  21.4968640  60.3407380  17.2764160  26.3933020
  59.8786750  17.4847180  27.2052960  59.9385490  16.4623510  26.0903690
  65.3411890  18.4973110  27.5229680  64.4905480  18.1978860  27.8438750
  65.1813680  18.7415120  26.6113500  62.4361600  19.9974860  29.6228470
  62.7615010  19.1638610  29.2830700  63.2241930  20.5203380  29.7706800
  59.1696390  14.0306340  15.6703530  58.5450570  14.0266210  16.3956840
  59.0826510  13.1637300  15.2739500  58.0913470  14.9542970  22.6487300
  58.3885800  15.8605800  22.5679320  58.6399030  14.4661750  22.0346870
  55.8451790  19.5329210  18.5178950  55.6192710  19.3166380  19.4225570
  55.0644320  19.9657670  18.1724920  63.0749550  19.5392580  17.1169600
  62.4758440  20.2628380  16.9333220  63.6229160  19.4769360  16.3346050
  58.2851000  20.4314790  29.1839220  58.1894600  19.4909520  29.0339620
  59.1282980  20.6529860  28.7887290  61.6814420  18.1756120  19.1472880
  62.0743990  18.4928320  18.3341570  62.0431270  17.2968000  19.2617400
  53.4161540  16.8428460  27.3373000  53.0224930  17.6903670  27.5445780
  52.7279940  16.2054830  27.5281640  59.9906590  16.9263430  30.4069740
  59.3004910  16.7335630  31.0415830  60.7338890  17.2098070  30.9394040
  50.7178590  14.7656920  21.3703080  50.4291640  15.3359780  22.0828060
  51.4624350  14.2861370  21.7334310  50.9048820  18.7077040  12.5805800
  50.8223490  19.6507800  12.7220790  50.5531880  18.5651950  11.7018150
  62.2669560  20.7661870  23.2423660  61.5350680  21.2748680  23.5913760
  61.8693900  19.9491850  22.9412440  58.7046950  17.4416070  21.6476150
  58.7083010  17.0006020  20.7980690  59.5998070  17.7633400  21.7547970
  54.5549330  17.3242560  20.6070360  54.2149380  17.8017790  21.3637410
  53.7926650  16.8707680  20.2471460  58.7667100  18.4428150  14.6382910
  58.8879920  18.4014630  15.5868730  58.3815610  19.3052300  14.4829640
  62.7295470  16.2195550  22.6546600  62.7468210  16.6704200  23.4988450
  62.4811050  15.3201190  22.8680040  57.7788600  20.7529290  14.0366210
  57.2105500  20.3047540  13.4102120  58.4877600  21.1122070  13.5031360
  66.1566220  13.6327730  28.4932980  66.4811990  12.9017390  29.0190960
  66.1922730  13.3141370  27.5913970  52.8557780  24.6541310  27.9132940
  52.4712570  24.0134980  28.5115900  53.1669970  25.3577430  28.4827670
  59.0054920  21.5017850  23.3941560  59.3725050  21.0276420  24.1402900
  58.8159980  22.3759420  23.7349900  51.8695410  16.2461540  19.5235030
  51.5842330  15.8817210  20.3613650  51.8074270  15.5142000  18.9098170
  56.7954290  20.5426490  25.7125770  56.4911360  21.4218470  25.9376130
  57.7500750  20.6026280  25.7483210  55.3236080  24.7487480  16.3092620
  54.5498340  24.2085100  16.1491340  56.0530710  24.2294090  15.9710380
  66.0824060  23.7452840  22.1019010  66.8023180  24.2408130  21.7115120
  65.8805880  23.0670730  21.4572880  61.5434000  15.1390800  16.2448400
  60.7298610  14.6403970  16.1693710  61.3495950  15.9789050  15.8284750
  61.4642860  23.8161900  27.9888010  61.3980170  22.8957570  27.7345600
  60.8348000  23.9137340  28.7032650  64.2582390  19.5110450  14.5410560
  65.1462010  19.8227680  14.3661900  64.2287480  18.6382700  14.1491140
  55.3673480  24.4167860  19.9471430  55.8852150  23.6136120  19.8928320
  54.9157500  24.3547000  20.7888260  60.2542980  25.6834140  15.2198730
  60.5958680  26.4276370  14.7242050  59.4255690  25.9965260  15.5823560
  52.8518020  21.3829230  26.8597130  52.4932960  22.0483080  27.4470470
  52.5572580  20.5512780  27.2309750  56.0531140  21.8413470  29.7436680
  55.7531280  21.9870650  28.8464500  56.8242380  21.2818760  29.6510070
  61.3959590  26.6382470  27.7391810  61.4104130  25.7063430  27.5210720
  60.6884690  26.7242230  28.3781580  66.5296660  20.8222290  14.0090420
  66.4460380  21.2536510  13.1586860  67.2490850  21.2820640  14.4417240
  67.6070800  23.2789810  27.0860390  66.8818990  23.8718590  26.8889780
  68.1346260  23.2713350  26.2873760  67.5583910  27.6764550  16.7372550
  66.9160070  27.0220170  17.0116270  67.1714570  28.0819640  15.9613220
  63.1370390  25.0049980  20.5844240  63.4894210  24.4078110  19.9245610
  62.2532720  24.6794210  20.7552490  59.2233670  25.7647670  17.9914650
  59.9104800  26.3116880  18.3722240  58.4366090  26.3088400  18.0264260
  51.3626070  21.3820490  13.4831730  52.2320920  21.6645290  13.7667650
  50.8716390  22.1956360  13.3680540  58.5260880  22.7693700  17.6040010
  58.9823660  23.5798950  17.8300200  58.1749090  22.4516840  18.4358500
  60.8293490  28.2800040  24.8332310  61.4735710  28.4859420  25.5105730
  61.1922930  27.5188440  24.3803160  54.4272660  13.1131350  18.0762530
  54.2987290  13.1049250  19.0247450  53.6034680  13.4514440  17.7253540
  62.1025570  26.2832390  23.5509760  62.7447800  25.5825550  23.6641930
  62.6274920  27.0630830  23.3706650  65.9481290  26.5681010  13.2748900
  65.7218870  25.8511450  13.8673540  65.5577490  26.3193450  12.4370650
  63.8763190  27.0827290  26.7545820  64.2119430  27.6693980  27.4323740
  62.9563530  26.9520000  26.9843610  51.7297320  30.5947870  14.0493360
  52.0894960  31.1937210  13.3950630  51.5889660  31.1407760  14.8228390
  51.4266590  14.8722470  27.5369230  50.7125110  15.0719390  28.1421840
  51.8461630  14.0962040  27.9084030  65.5297540  24.4852950  14.9363060
  65.2419240  24.9465640  15.7240940  66.3249710  24.0250720  15.2047280
  51.7139180  28.8602730  28.5235760  51.8230300  27.9197470  28.3831150
  51.0619740  29.1257480  27.8749490  59.7051770  27.1318620  29.9233880
  59.3848640  26.4127860  30.4679570  59.0310130  27.8073690  29.9969940
  57.7465940  27.9779070  14.8667030  57.7376040  28.7108760  14.2511540
  56.8264300  27.7310650  14.9593990  53.3472580  23.1993960  15.6113790
  52.7400530  23.9392860  15.6209090  53.8221930  23.2893320  14.7851990
  62.9205370  17.3644780  25.2870680  63.2886190  16.5439990  25.6150250
  62.0603570  17.4246670  25.7026330  66.2867400  16.3201720  16.0958240
  65.6580560  16.4247390  15.3816470  65.7919320  16.5398500  16.8852120
  60.7325540  28.0407310  13.5292220  60.8337520  27.8371300  12.5994200
  59.8327280  27.7865590  13.7340000  58.2551430  18.5987670  17.5116120
  57.5467580  19.0674010  17.9529730  58.5395910  17.9409680  18.1461310
  59.8807360  20.0184370  25.5108650  60.3792610  20.4930190  26.1760500
  60.0230310  19.0947890  25.7178680  62.2866860  15.3238330  18.9511910
  62.1634640  15.3424460  18.0021420  63.2351420  15.3717270  19.0710310
  59.3743650  30.5593630  18.2239890  59.6285150  30.5215020  17.3019260
  58.4256130  30.4326960  18.2168140  56.4586450  16.9072750  14.8866830
  57.3076980  17.3442900  14.8207020  56.0917720  17.2193010  15.7138890
  67.0874220  16.2352330  26.3537040  66.5847820  16.9757730  26.6930850
  67.9030880  16.6236330  26.0373830  65.3796230  21.4785510  19.7998400
  64.4386370  21.4935740  19.9746090  65.6940300  20.6921470  20.2458700
  55.3577870  23.1605110  13.3602360  56.1241140  23.0486470  13.9227790
  55.4352560  22.4643080  12.7079130  54.0524630  20.5930180  14.0435250
  54.1328220  19.6457690  14.1552650  54.9444380  20.9237060  14.1495910
  67.3821810  28.6494360  21.4752660  67.5069230  29.4725530  21.9476470
  68.2487370  28.4385090  21.1276810  54.8539340  30.7425570  21.1469790
  55.5901820  30.1941030  21.4178360  55.2380260  31.6081580  21.0075780
  51.7384820  26.8099140  17.0211300  50.8124600  27.0520280  17.0116710
  52.2041250  27.6373400  16.8996050  53.8597620  29.9271640  30.3355370
  54.6610350  30.2483690  30.7490770  53.3449440  29.5667220  31.0575280
  57.9641650  29.9155880  12.9695360  58.7570260  30.2044710  12.5177150
  57.4446000  29.4848050  12.2907840  62.6962250  26.0351510  30.2830780
  62.0900410  26.0583110  29.5426530  62.3916360  25.3034550  30.8198030
  64.1262620  29.7631800  28.8940190  65.0784370  29.6789820  28.8440430
  63.9790840  30.4273510  29.5673980  67.0171820  29.1426010  14.3932100
  66.7313330  28.7291150  13.5786280  66.8191370  30.0713720  14.2732620
  51.5795430  22.4145100  29.2791420  52.0834450  21.8352380  29.8507650
  50.8402850  22.6985330  29.8167790  58.4819050  25.1359290  12.8337710
  58.3769690  24.5211640  13.5599090  58.3143270  24.6125180  12.0500720
  58.6333370  23.8216090  28.8126940  57.8679040  24.3901090  28.7281610
  58.8149330  23.5292300  27.9195170  61.7221780  24.1979320  13.4379700
  61.1731880  24.6448620  14.0822440  62.3441040  23.6928570  13.9617370
  65.7756720  25.5521420  29.3701960  66.5166190  25.8897180  28.8669420
  65.0129400  25.7213480  28.8171730  53.6118510  20.5574690  30.1741490
  53.6523850  20.2588560  31.0826720  54.4664010  20.9582300  30.0149010
  57.3896900  23.1570240  15.3345000  57.8113320  22.9910110  16.1776390
  57.5147740  22.3470470  14.8400140  55.5524320  19.1366790  28.1415980
  55.0220780  18.6457740  27.5139320  56.2212390  19.5650990  27.6073910
  59.9024540  22.1807850  12.5822100  60.4230200  21.4656870  12.2163250
  60.5492940  22.8193720  12.8822610  64.4502380  23.6036250  27.9057170
  64.8643400  23.7581330  28.7547590  63.5153380  23.7291470  28.0682950
  64.9224550  20.9432410  29.9096320  65.5045320  20.1884730  29.8216800
  65.0986320  21.4739850  29.1327800  56.0396620  16.1029160  28.2213270
  55.9453490  15.4849910  27.4964140  55.4594010  16.8295450  27.9943180
  58.8058060  14.6602400  25.2540660  58.3575360  14.6826660  24.4086210
  58.1723260  14.2621420  25.8510960  59.2117610  23.5556730  25.8753100
  59.6305720  24.3989460  25.7029340  58.2926240  23.6928770  25.6459880
  61.5481510  21.2872910  27.2590940  61.6677720  20.6914050  27.9985780
  62.4075510  21.3242600  26.8392240  63.8869410  21.8410100  25.8353450
  63.3604630  22.3652720  25.2318590  64.2300750  22.4737490  26.4663180
  56.2855800  19.2303470  12.2803160  56.0844860  18.3670830  12.6416500
  56.1147850  19.1436830  11.3424760  57.0625030  29.8609740  26.9910830
  56.5246120  30.5855800  26.6719530  57.3158990  29.3840080  26.2008170
  58.3150280  17.8294260  28.5166760  58.9049970  17.5210110  29.2044580
  57.4970520  17.3574010  28.6726660  63.1343710  17.4460070  28.7499780
  62.4459230  16.7841610  28.6849770  63.8549730  16.9998340  29.1948240
  63.7644110  14.0411700  14.8090040  64.0446400  13.1979600  15.1649460
  62.9909840  14.2734810  15.3228790  55.0838600  16.3304090  12.2681040
  55.3864500  16.3371520  11.3600190  55.8233190  15.9801950  12.7648700
  59.9187240  31.0960950  27.2497480  59.8445940  31.9996090  27.5569850
  59.0166080  30.7772850  27.2219550  58.3023530  15.2738710  13.2537240
  57.9545530  14.5962700  12.6739690  58.5036300  14.8128220  14.0680630
  60.4672570  30.2619460  14.8723840  61.3623360  30.6004430  14.8942600
  60.4990200  29.5398870  14.2448120  54.1068730  25.6346510  13.1010840
  54.5443600  26.1776180  13.7568420  54.5916460  24.8093460  13.1107180
  51.3214530  28.4235540  20.5531100  51.6517540  27.5556600  20.3209740
  51.7505530  28.6294060  21.3836060  55.9176450  26.7544550  18.2133070
  55.6171990  26.6309520  19.1136980  55.8113940  25.8953140  17.8048800
  51.8104740  29.2906130  23.2912730  51.3735730  29.4706930  24.1236880
  52.3782420  30.0480750  23.1494450  67.4466920  28.7923130  27.5790040
  66.8468910  28.8515690  26.8353960  67.5760820  27.8528110  27.7086890
  68.6868370  26.5340950  12.9159750  67.8561330  26.6017600  13.3866980
  68.8640200  27.4245070  12.6126610  68.1424830  23.2788430  15.4193950
  68.9043740  23.8485080  15.5253640  68.1579200  22.7115630  16.1902260
  51.6429170  21.8026360  19.6501610  50.9878010  21.5338000  19.0061310
  52.4807120  21.6930840  19.2003590  69.1484800  24.1338530  20.2635880
  69.5193630  23.3505850  19.8571850  69.7886730  24.8227630  20.0853180
  66.1318560  25.5175110  25.6766200  65.3178400  25.9472270  25.9391990
  66.5392760  26.1293520  25.0635250  68.1944000  23.5722800  12.5766470
  68.4692840  24.4801680  12.4485690  68.0054740  23.5085330  13.5128460
  64.5919610  16.5967650  13.8720100  65.0104490  16.4098630  13.0316760
  64.2855670  15.7446700  14.1823030  68.0909340  21.5091790  17.5695900
  67.7152940  20.7419720  17.1377190  67.3612460  21.8914490  18.0570830
  52.6805100  22.1878930  24.1904950  53.0478140  22.1006330  25.0700970
  52.1115920  21.4245480  24.0911810  67.4808960  20.6563310  27.2035420
  67.2495050  20.4276060  26.3033370  67.7413510  21.5762860  27.1580310
  52.2321100  19.0988020  28.0963370  51.3377150  19.0654780  28.4357080
  52.7718650  19.2974810  28.8614620  65.9197030  15.8819740  29.9815120
  66.7967210  15.8903140  30.3649120  65.9317870  15.1450580  29.3707470
  50.8567250  19.0125290  15.5926940  49.9531330  19.2755490  15.4178600
  51.3407870  19.2836460  14.8126900  67.3660300  19.7349280  20.8703140
  67.8897780  19.2411930  20.2393310  67.9519720  19.8699640  21.6150710
  67.5450020  19.8189150  24.3922690  66.5952730  19.7852690  24.5067680
  67.7263030  20.7289260  24.1572460  53.3994460  18.0690830  13.5021320
  54.1086160  17.6474050  13.0168600  52.6834400  18.1366060  12.8704670
  53.0468620  14.1230160  12.5423970  53.7696750  14.6639100  12.8605190
  53.3193140  13.8493580  11.6665510  66.8560270  18.9922630  16.8095550
  67.3519390  18.7593500  17.5944430  66.6576340  18.1534470  16.3933190
  52.7360810  13.3736350  22.4446590  53.3837000  12.8233730  22.0041750
  53.1562650  13.6279500  23.2662400  68.2847430  17.6283580  19.3433230
  68.1746710  17.4739620  20.2815500  69.0455020  17.1004520  19.1008640
  66.6313150  13.5677710  25.8016230  67.2685370  14.1811850  26.1675420
  66.7788040  13.6038370  24.8565460  69.1737700  15.4591500  12.5839370
  70.0987010  15.3272680  12.3757660  69.1513490  15.5384320  13.5375820
  69.2476190  16.2302160  15.2096080  68.4527690  16.1647280  15.7388990
  69.4519470  17.1652800  15.1981430  66.1894610  30.2693710  19.2034470
  66.7853680  29.9478280  18.5268890  66.4472760  29.7965530  19.9947740
  52.4892810  13.5292020  25.1871910  52.1407630  13.9855840  25.9530090
  52.1580510  12.6349150  25.2694340  54.0957180  26.7011620  29.3525100
  54.0526810  26.3304530  30.2339560  54.2268190  27.6389190  29.4926920
  57.7963210  28.2571210  24.9534820  57.5554570  28.5245770  24.0665340
  58.7365850  28.4276940  25.0085680  60.0017630  14.7203900  28.7091330
  59.9406520  15.3125730  29.4586740  60.9418010  14.6129860  28.5641590
  62.6392190  14.3773960  28.3483620  63.2532600  14.6953250  27.6864700
  63.1841750  13.8922550  28.9679480  69.0567370  30.2765590  25.7545460
  68.5625650  30.6734460  25.0372590  68.4480660  29.6514800  26.1482740
  53.1613450  13.0568220  28.4622680  53.7096440  12.8756270  27.6988790
  53.2268760  12.2662330  28.9978990  53.9345210  29.6473870  26.4722880
  53.3405530  29.5158570  27.2112920  53.9269050  28.8112010  26.0064980
  63.3800230  12.9406100  24.6752910  62.5060070  13.2741210  24.4725840
  63.2710980  12.4679280  25.5004780  64.2872210  15.1476970  26.0594630
  63.9585570  14.3328730  25.6796360  65.2354510  15.1046780  25.9360320
  66.7406820  30.9189010  23.0332200  66.2809790  31.6704820  22.6590220
  66.1119280  30.1995480  22.9747000  53.5657440  27.0132250  25.4230920
  52.8391500  26.3937540  25.3556870  53.6266590  27.4072860  24.5529000
  57.1702540  29.2277250  22.2080330  57.6867560  28.6164610  21.6828590
  57.8199920  29.7306030  22.6991340  59.9098040  30.1185740  23.0349310
  60.1975850  29.8640040  22.1582320  60.4221260  29.5663100  23.6254880
  61.1275050  13.8575940  23.6145820  60.3446840  14.3321440  23.8942580
  60.8337980  12.9530770  23.5059000  65.6796120  14.5599040  21.6594910
  66.1204210  14.5044140  20.8116510  65.4103710  15.4757050  21.7305090
  67.5434690  14.1914280  19.6703730  67.4823090  13.2475500  19.5234750
  68.3226720  14.2994370  20.2157190  51.8487440  30.3306640  18.6327680
  51.6809480  29.6977320  19.3309570  50.9821950  30.5366040  18.2821870
  52.4715460  14.1623420  16.1359540  53.2294820  14.2752300  15.5623570
  52.0092630  14.9992620  16.0902970  59.0129270  16.2762690  19.1261850
  58.2003780  15.9019580  18.7857730  59.5170910  15.5207770  19.4283040
  63.5154250  12.9405140  20.3644920  64.1183620  13.5125350  20.8393440
  62.7747240  13.5044580  20.1418820  66.6588850  13.3426700  15.6385200
  66.8539480  14.2410150  15.9052630  65.8718720  13.1113780  16.1318150
  53.4550140  29.0239870  16.0777820  52.9297760  29.4047900  15.3739780
  53.3794720  29.6490640  16.7987530  54.8440610  14.6887470  14.6761510
  55.3733370  13.9017270  14.5469460  55.4768930  15.3678660  14.9097040
  57.0378450  14.4262610  17.7306900  56.4081190  13.7249920  17.8977030
  56.4983590  15.1866740  17.5140060  59.9770400  31.0401840  30.4017510
  60.9037710  30.8046110  30.4453470  59.9620830  31.8673840  29.9203540
  68.2115460  30.5827410  17.3991760  68.3867650  29.8965150  16.7552680
  67.5137030  31.1074460  17.0068430  57.1634010  13.7046590  30.1659390
  56.8818280  14.2080190  29.4020210  57.5453710  12.9068340  29.8001520
  56.0543110  30.9722250  14.9527070  56.7861930  30.6881530  14.4050960
  56.3136780  30.7335530  15.8426450  55.2157900  27.0886980  14.9573400
  54.5866780  27.5572080  15.5059230  55.3305730  26.2436200  15.3919590
  63.7649470  13.1200170  30.7439860  63.6514920  13.4394780  31.6391380
  64.5819210  13.5212680  30.4477140  66.5447960  30.2671700  30.2258550
  67.3373280  29.7720930  30.0184510  66.8381110  30.9461840  30.8334160
  60.8025660  22.9171660   2.9883870  60.0267760  22.4372100   3.2782440
  61.4538590  22.2377310   2.8140030  54.8191490  23.2291470   3.8659630
  53.9876370  22.9740180   4.2656140  55.4272470  23.3002240   4.6017550
  64.8233090  27.3231850   1.7683000  64.3614620  26.5519090   2.0970170
  65.6358640  27.3497920   2.2735450  54.7992750  27.2631560   4.0617650
  55.1020790  26.3729300   3.8827870  55.5436340  27.8201780   3.8339900
  51.1916450  20.7899010   3.5341720  51.7632560  20.0221210   3.5345360
  51.1917990  21.0887770   2.6248330  60.2434650  25.5928850   2.9954030
  60.1742930  24.6518790   2.8343160  61.0054510  25.6830260   3.5676600
  52.4341320  16.1983370   5.3210650  52.2544160  15.3009120   5.6013410
  52.0321400  16.7455240   5.9957600  61.2739820  18.3999230   3.2222960
  61.6504640  17.5271110   3.1096630  61.1759330  18.7357930   2.3313400
  53.0527990  18.6943870   3.9292990  53.7338100  18.9582240   4.5480390
  52.7376040  17.8544740   4.2631000  57.2452560  19.7411230   3.0165580
  57.7530780  20.2392200   3.6570600  57.7765800  18.9646430   2.8404940
  69.3463490  17.9116420   6.7194930  68.6415660  18.2998130   6.2010040
  69.6121410  18.6066710   7.3215860  55.5288660  14.3809790   7.2829000
  55.5307100  14.8982180   6.4774900  54.6992970  13.9039970   7.2598930
  56.7791510  24.0204970   5.4602500  56.4460890  24.6473890   6.1023570
  56.9558190  24.5466850   4.6804170  65.2925420  17.8350050   2.9278840
  64.5880990  18.1234940   3.5081950  65.6537580  18.6450160   2.5678400
  55.2103990  16.0919750   5.2899450  55.5520800  16.9361800   4.9953320
  54.2719800  16.2403490   5.4064790  55.9910610  25.9885770   7.2751680
  56.6084610  26.6636850   6.9936130  55.1303730  26.3973750   7.1839180
  66.9088200  27.4525180   5.1906320  66.2251720  28.1224290   5.1822990
  67.4482490  27.6505830   4.4251180  68.3612340  17.2804840   3.3188050
  67.4137250  17.3143820   3.4503480  68.6862330  18.0943790   3.7037410
  64.4446940  29.2969310   3.9051500  64.4574100  28.8931600   3.0373760
  63.8922160  30.0716600   3.8012930  63.8432380  24.1999150   5.2334110
  64.2601170  23.9859260   4.3987570  64.5672200  24.4571940   5.8042730
  67.7894480  22.5986370   5.3250350  66.9613110  22.6679460   4.8500480
  68.3844960  23.1840680   4.8566180  64.7536490  19.3855690   6.2705220
  64.3407670  20.2109400   6.5245210  64.0212440  18.8000730   6.0781580
  57.3550980  25.8583150   3.2963100  57.0579270  25.2528620   2.6170880
  58.3050800  25.8960460   3.1852460  55.5997900  18.9458800   4.9122930
  56.1512490  19.0554140   4.1376180  56.1141410  19.3196400   5.6278160
  65.4436590  29.4315020   6.9586200  64.9667150  30.2387210   6.7658810
  64.7598380  28.7793350   7.1112410  56.4469410  25.5964840   9.9470900
  55.5497940  25.8204810  10.1944300  56.4722280  25.7199780   8.9982300
  55.2740630  22.4678160   8.5228270  55.1348400  23.3400960   8.8915670
  54.3921990  22.1250970   8.3776210  57.0720980  28.4099860  10.7313420
  57.0436410  28.8142810   9.8641850  56.9085950  27.4810220  10.5685020
  69.0235800  29.1926960  12.0277590  69.4995520  29.6709850  12.7066670
  69.6442960  29.1244450  11.3023090  51.2259280  24.2375710   4.4399180
  51.3039700  24.3724480   3.4954900  51.8400960  23.5291600   4.6327300
  68.4269050  26.3839810   9.1877600  68.5532110  26.1451690   8.2694780
  68.4690430  25.5524350   9.6599680  62.2885790  30.0867810   7.7572410
  62.8030460  29.9975820   8.5594840  61.4454870  30.4327510   8.0500320
  68.2793060  18.4372270  10.1527340  67.6637330  18.9451940   9.6242800
  67.9589480  17.5370600  10.0953280  51.2818800  25.2789880   6.9793640
  51.4449840  24.8095240   6.1613010  51.7471250  24.7713440   7.6442480
  56.0537570  14.4095640   2.0154210  55.6105720  15.1905180   1.6838730
  56.6122560  14.7325530   2.7225150  60.3407380  17.2764160   7.6189530
  59.8786750  17.4847180   8.4309470  59.9385490  16.4623510   7.3160200
  65.3411890  18.4973110   8.7486190  64.4905480  18.1978860   9.0695260
  65.1813680  18.7415120   7.8370010  62.4361600  19.9974860  10.8484980
  62.7615010  19.1638610  10.5087210  63.2241930  20.5203380  10.9963310
  58.0913470  14.9542970   3.8743810  58.3885800  15.8605800   3.7935830
  58.6399030  14.4661750   3.2603380  58.2851000  20.4314790  10.4095730
  58.1894600  19.4909520  10.2596130  59.1282980  20.6529860  10.0143800
  53.4161540  16.8428460   8.5629510  53.0224930  17.6903670   8.7702290
  52.7279940  16.2054830   8.7538150  59.9906590  16.9263430  11.6326250
  59.3004910  16.7335630  12.2672340  60.7338890  17.2098070  12.1650550
  50.7178590  14.7656920   2.5959590  50.4291640  15.3359780   3.3084570
  51.4624350  14.2861370   2.9590820  62.2669560  20.7661870   4.4680170
  61.5350680  21.2748680   4.8170270  61.8693900  19.9491850   4.1668950
  58.7046950  17.4416070   2.8732660  58.7083010  17.0006020   2.0237200
  59.5998070  17.7633400   2.9804480  54.5549330  17.3242560   1.8326870
  54.2149380  17.8017790   2.5893920  53.7926650  16.8707680   1.4727970
  62.7295470  16.2195550   3.8803110  62.7468210  16.6704200   4.7244960
  62.4811050  15.3201190   4.0936550  66.1566220  13.6327730   9.7189490
  66.4811990  12.9017390  10.2447470  66.1922730  13.3141370   8.8170480
  52.8557780  24.6541310   9.1389450  52.4712570  24.0134980   9.7372410
  53.1669970  25.3577430   9.7084180  59.0054920  21.5017850   4.6198070
  59.3725050  21.0276420   5.3659410  58.8159980  22.3759420   4.9606410
  56.7954290  20.5426490   6.9382280  56.4911360  21.4218470   7.1632640
  57.7500750  20.6026280   6.9739720  66.0824060  23.7452840   3.3275520
  66.8023180  24.2408130   2.9371630  65.8805880  23.0670730   2.6829390
  61.4642860  23.8161900   9.2144520  61.3980170  22.8957570   8.9602110
  60.8348000  23.9137340   9.9289160  52.8518020  21.3829230   8.0853640
  52.4932960  22.0483080   8.6726980  52.5572580  20.5512780   8.4566260
  56.0531140  21.8413470  10.9693190  55.7531280  21.9870650  10.0721010
  56.8242380  21.2818760  10.8766580  61.3959590  26.6382470   8.9648320
  61.4104130  25.7063430   8.7467230  60.6884690  26.7242230   9.6038090
  67.6070800  23.2789810   8.3116900  66.8818990  23.8718590   8.1146290
  68.1346260  23.2713350   7.5130270  60.8293490  28.2800040   6.0588820
  61.4735710  28.4859420   6.7362240  61.1922930  27.5188440   5.6059670
  62.1025570  26.2832390   4.7766270  62.7447800  25.5825550   4.8898440
  62.6274920  27.0630830   4.5963160  63.8763190  27.0827290   7.9802330
  64.2119430  27.6693980   8.6580250  62.9563530  26.9520000   8.2100120
  51.4266590  14.8722470   8.7625740  50.7125110  15.0719390   9.3678350
  51.8461630  14.0962040   9.1340540  51.7139180  28.8602730   9.7492270
  51.8230300  27.9197470   9.6087660  51.0619740  29.1257480   9.1006000
  59.7051770  27.1318620  11.1490390  59.3848640  26.4127860  11.6936080
  59.0310130  27.8073690  11.2226450  62.9205370  17.3644780   6.5127190
  63.2886190  16.5439990   6.8406760  62.0603570  17.4246670   6.9282840
  59.8807360  20.0184370   6.7365160  60.3792610  20.4930190   7.4017010
  60.0230310  19.0947890   6.9435190  67.0874220  16.2352330   7.5793550
  66.5847820  16.9757730   7.9187360  67.9030880  16.6236330   7.2630340
  67.3821810  28.6494360   2.7009170  67.5069230  29.4725530   3.1732980
  68.2487370  28.4385090   2.3533320  54.8539340  30.7425570   2.3726300
  55.5901820  30.1941030   2.6434870  55.2380260  31.6081580   2.2332290
  53.8597620  29.9271640  11.5611880  54.6610350  30.2483690  11.9747280
  53.3449440  29.5667220  12.2831790  62.6962250  26.0351510  11.5087290
  62.0900410  26.0583110  10.7683040  62.3916360  25.3034550  12.0454540
  64.1262620  29.7631800  10.1196700  65.0784370  29.6789820  10.0696940
  63.9790840  30.4273510  10.7930490  51.5795430  22.4145100  10.5047930
  52.0834450  21.8352380  11.0764160  50.8402850  22.6985330  11.0424300
  58.6333370  23.8216090  10.0383450  57.8679040  24.3901090   9.9538120
  58.8149330  23.5292300   9.1451680  65.7756720  25.5521420  10.5958470
  66.5166190  25.8897180  10.0925930  65.0129400  25.7213480  10.0428240
  53.6118510  20.5574690  11.3998000  53.6523850  20.2588560  12.3083230
  54.4664010  20.9582300  11.2405520  55.5524320  19.1366790   9.3672490
  55.0220780  18.6457740   8.7395830  56.2212390  19.5650990   8.8330420
  64.4502380  23.6036250   9.1313680  64.8643400  23.7581330   9.9804100
  63.5153380  23.7291470   9.2939460  64.9224550  20.9432410  11.1352830
  65.5045320  20.1884730  11.0473310  65.0986320  21.4739850  10.3584310
  56.0396620  16.1029160   9.4469780  55.9453490  15.4849910   8.7220650
  55.4594010  16.8295450   9.2199690  58.8058060  14.6602400   6.4797170
  58.3575360  14.6826660   5.6342720  58.1723260  14.2621420   7.0767470
  59.2117610  23.5556730   7.1009610  59.6305720  24.3989460   6.9285850
  58.2926240  23.6928770   6.8716390  61.5481510  21.2872910   8.4847450
  61.6677720  20.6914050   9.2242290  62.4075510  21.3242600   8.0648750
  63.8869410  21.8410100   7.0609960  63.3604630  22.3652720   6.4575100
  64.2300750  22.4737490   7.6919690  57.0625030  29.8609740   8.2167340
  56.5246120  30.5855800   7.8976040  57.3158990  29.3840080   7.4264680
  58.3150280  17.8294260   9.7423270  58.9049970  17.5210110  10.4301090
  57.4970520  17.3574010   9.8983170  63.1343710  17.4460070   9.9756290
  62.4459230  16.7841610   9.9106280  63.8549730  16.9998340  10.4204750
  59.9187240  31.0960950   8.4753990  59.8445940  31.9996090   8.7826360
  59.0166080  30.7772850   8.4476060  51.3214530  28.4235540   1.7787610
  51.6517540  27.5556600   1.5466250  51.7505530  28.6294060   2.6092570
  51.8104740  29.2906130   4.5169240  51.3735730  29.4706930   5.3493390
  52.3782420  30.0480750   4.3750960  67.4466920  28.7923130   8.8046550
  66.8468910  28.8515690   8.0610470  67.5760820  27.8528110   8.9343400
  66.1318560  25.5175110   6.9022710  65.3178400  25.9472270   7.1648500
  66.5392760  26.1293520   6.2891760  52.6805100  22.1878930   5.4161460
  53.0478140  22.1006330   6.2957480  52.1115920  21.4245480   5.3168320
  67.4808960  20.6563310   8.4291930  67.2495050  20.4276060   7.5289880
  67.7413510  21.5762860   8.3836820  52.2321100  19.0988020   9.3219880
  51.3377150  19.0654780   9.6613590  52.7718650  19.2974810  10.0871130
  65.9197030  15.8819740  11.2071630  66.7967210  15.8903140  11.5905630
  65.9317870  15.1450580  10.5963980  67.3660300  19.7349280   2.0959650
  67.8897780  19.2411930   1.4649820  67.9519720  19.8699640   2.8407220
  67.5450020  19.8189150   5.6179200  66.5952730  19.7852690   5.7324190
  67.7263030  20.7289260   5.3828970  52.7360810  13.3736350   3.6703100
  53.3837000  12.8233730   3.2298260  53.1562650  13.6279500   4.4918910
  66.6313150  13.5677710   7.0272740  67.2685370  14.1811850   7.3931930
  66.7788040  13.6038370   6.0821970  52.4892810  13.5292020   6.4128420
  52.1407630  13.9855840   7.1786600  52.1580510  12.6349150   6.4950850
  54.0957180  26.7011620  10.5781610  54.0526810  26.3304530  11.4596070
  54.2268190  27.6389190  10.7183430  57.7963210  28.2571210   6.1791330
  57.5554570  28.5245770   5.2921850  58.7365850  28.4276940   6.2342190
  60.0017630  14.7203900   9.9347840  59.9406520  15.3125730  10.6843250
  60.9418010  14.6129860   9.7898100  62.6392190  14.3773960   9.5740130
  63.2532600  14.6953250   8.9121210  63.1841750  13.8922550  10.1935990
  69.0567370  30.2765590   6.9801970  68.5625650  30.6734460   6.2629100
  68.4480660  29.6514800   7.3739250  53.1613450  13.0568220   9.6879190
  53.7096440  12.8756270   8.9245300  53.2268760  12.2662330  10.2235500
  53.9345210  29.6473870   7.6979390  53.3405530  29.5158570   8.4369430
  53.9269050  28.8112010   7.2321490  63.3800230  12.9406100   5.9009420
  62.5060070  13.2741210   5.6982350  63.2710980  12.4679280   6.7261290
  64.2872210  15.1476970   7.2851140  63.9585570  14.3328730   6.9052870
  65.2354510  15.1046780   7.1616830  66.7406820  30.9189010   4.2588710
  66.2809790  31.6704820   3.8846730  66.1119280  30.1995480   4.2003510
  53.5657440  27.0132250   6.6487430  52.8391500  26.3937540   6.5813380
  53.6266590  27.4072860   5.7785510  57.1702540  29.2277250   3.4336840
  57.6867560  28.6164610   2.9085100  57.8199920  29.7306030   3.9247850
  59.9098040  30.1185740   4.2605820  60.1975850  29.8640040   3.3838830
  60.4221260  29.5663100   4.8511390  61.1275050  13.8575940   4.8402330
  60.3446840  14.3321440   5.1199090  60.8337980  12.9530770   4.7315510
  65.6796120  14.5599040   2.8851420  66.1204210  14.5044140   2.0373020
  65.4103710  15.4757050   2.9561600  59.9770400  31.0401840  11.6274020
  60.9037710  30.8046110  11.6709980  59.9620830  31.8673840  11.1460050
  57.1634010  13.7046590  11.3915900  56.8818280  14.2080190  10.6276720
  57.5453710  12.9068340  11.0258030  63.7649470  13.1200170  11.9696370
  63.6514920  13.4394780  12.8647890  64.5819210  13.5212680  11.6733650
  66.5447960  30.2671700  11.4515060  67.3373280  29.7720930  11.2441020
  66.8381110  30.9461840  12.0590670  62.6707620   2.3649150  57.4305070
  62.5901670   1.4503760  57.1596780  62.2572040   2.8616220  56.7244780
  60.8025660   4.1428170  59.3114340  60.0267760   3.6628610  59.6012910
  61.4538590   3.4633820  59.1370500  64.8233090   8.5488360  58.0913470
  64.3614620   7.7775600  58.4200640  65.6358640   8.5754430  58.5965920
  51.1916450   2.0155520  59.8572190  51.7632560   1.2477720  59.8575830
  51.1917990   2.3144280  58.9478800  61.0496400  10.8346370  57.7117460
  60.4307840  11.2903870  57.1411900  61.9048180  10.9897830  57.3107160
  60.2434650   6.8185360  59.3184500  60.1742930   5.8775300  59.1573630
  61.0054510   6.9086770  59.8907070  61.9159750   5.7185610  55.1049370
  61.2977020   6.1835060  54.5412090  62.4283000   6.4113090  55.5218880
  51.2842950   6.4042140  52.4789000  50.9070930   6.8929240  51.7473900
  51.5416020   7.0767420  53.1095530  64.4446940  10.5225820  60.2281970
  64.4574100  10.1188110  59.3604230  63.8922160  11.2973110  60.1243400
  65.7392360   7.2442040  55.3172140  65.6288690   6.3016370  55.4421560
  65.7360610   7.6057680  56.2034900  61.2812640   2.8707360  54.6734630
  60.3541920   2.8044740  54.9023100  61.4337460   3.8087490  54.5589870
  65.3109930   4.4327660  55.1769880  64.6922350   4.0947210  54.5296180
  65.2934380   3.7887420  55.8849070  56.8869280   3.3972100  57.4554360
  56.4826280   2.6849350  56.9600260  56.9732400   3.0525340  58.3442400
  57.3550980   7.0839660  59.6193570  57.0579270   6.4785130  58.9401350
  58.3050800   7.1216970  59.5082930  63.4874630   3.6714470  52.1842630
  63.9267910   2.8336900  52.0380450  64.2003050   4.3043870  52.2706770
  61.5970010   8.6110540  56.1523870  62.0365920   9.3534870  55.7379260
  61.5356900   8.8537110  57.0762830  53.5873910   2.2917080  54.9561010
  53.4671510   3.0179170  54.3442280  53.2774800   1.5219990  54.4788920
  52.4706910   7.1632410  57.1735830  52.0634990   7.3047000  56.3189430
  53.3619920   6.8792570  56.9707040  64.2640190  11.5979660  53.5086880
  64.1041330  11.3082600  54.4068710  64.0986900  10.8219790  52.9732110
  56.7428570  11.3778190  55.2858500  56.5671050  10.4613730  55.0726300
  55.8884310  11.7365480  55.5256300  63.9666320   9.1067220  52.0684880
  63.2731480   9.1044510  51.4087160  64.7089180   8.6826540  51.6379050
  63.5316250  10.7329930  56.1433370  63.9873200   9.9519310  56.4571990
  63.8708770  11.4436750  56.6874550  57.7788600   1.9785800  51.5853190
  57.2105500   1.5304050  50.9589100  58.4877600   2.3378580  51.0518340
  55.3236080   5.9743990  53.8579600  54.5498340   5.4341610  53.6978320
  56.0530710   5.4550600  53.5197360  66.0824060   4.9709350  59.6505990
  66.8023180   5.4664640  59.2602100  65.8805880   4.2927240  59.0059860
  55.3673480   5.6424370  57.4958410  55.8852150   4.8392630  57.4415300
  54.9157500   5.5803510  58.3375240  60.2542980   6.9090650  52.7685710
  60.5958680   7.6532880  52.2729030  59.4255690   7.2221770  53.1310540
  66.5296660   2.0478800  51.5577400  66.4460380   2.4793020  50.7073840
  67.2490850   2.5077150  51.9904220  67.5583910   8.9021060  54.2859530
  66.9160070   8.2476680  54.5603250  67.1714570   9.3076150  53.5100200
  63.1370390   6.2306490  58.1331220  63.4894210   5.6334620  57.4732590
  62.2532720   5.9050720  58.3039470  59.2233670   6.9904180  55.5401630
  59.9104800   7.5373390  55.9209220  58.4366090   7.5344910  55.5751240
  51.3626070   2.6077000  51.0318710  52.2320920   2.8901800  51.3154630
  50.8716390   3.4212870  50.9167520  58.5260880   3.9950210  55.1526990
  58.9823660   4.8055460  55.3787180  58.1749090   3.6773350  55.9845480
  65.9481290   7.7937520  50.8235880  65.7218870   7.0767960  51.4160520
  65.5577490   7.5449960  49.9857630  51.7297320  11.8204380  51.5980340
  52.0894960  12.4193720  50.9437610  51.5889660  12.3664270  52.3715370
  65.5297540   5.7109460  52.4850040  65.2419240   6.1722150  53.2727920
  66.3249710   5.2507230  52.7534260  57.7465940   9.2035580  52.4154010
  57.7376040   9.9365270  51.7998520  56.8264300   8.9567160  52.5080970
  53.3472580   4.4250470  53.1600770  52.7400530   5.1649370  53.1696070
  53.8221930   4.5149830  52.3338970  60.7325540   9.2663820  51.0779200
  60.8337520   9.0627810  50.1481180  59.8327280   9.0122100  51.2826980
  59.3743650  11.7850140  55.7726870  59.6285150  11.7471530  54.8506240
  58.4256130  11.6583470  55.7655120  65.3796230   2.7042020  57.3485380
  64.4386370   2.7192250  57.5233070  65.6940300   1.9177980  57.7945680
  55.3577870   4.3861620  50.9089340  56.1241140   4.2742980  51.4714770
  55.4352560   3.6899590  50.2566110  67.3821810   9.8750870  59.0239640
  67.5069230  10.6982040  59.4963450  68.2487370   9.6641600  58.6763790
  54.8539340  11.9682080  58.6956770  55.5901820  11.4197540  58.9665340
  55.2380260  12.8338090  58.5562760  51.7384820   8.0355650  54.5698280
  50.8124600   8.2776790  54.5603690  52.2041250   8.8629910  54.4483030
  57.9641650  11.1412390  50.5182340  58.7570260  11.4301220  50.0664130
  57.4446000  10.7104560  49.8394820  67.0171820  10.3682520  51.9419080
  66.7313330   9.9547660  51.1273260  66.8191370  11.2970230  51.8219600
  58.4819050   6.3615800  50.3824690  58.3769690   5.7468150  51.1086070
  58.3143270   5.8381690  49.5987700  61.7221780   5.4235830  50.9866680
  61.1731880   5.8705130  51.6309420  62.3441040   4.9185080  51.5104350
  57.3896900   4.3826750  52.8831980  57.8113320   4.2166620  53.7263370
  57.5147740   3.5726980  52.3887120  59.9024540   3.4064360  50.1309080
  60.4230200   2.6913380  49.7650230  60.5492940   4.0450230  50.4309590
  60.4672570  11.4875970  52.4210820  61.3623360  11.8260940  52.4429580
  60.4990200  10.7655380  51.7935100  54.1068730   6.8603020  50.6497820
  54.5443600   7.4032690  51.3055400  54.5916460   6.0349970  50.6594160
  51.3214530   9.6492050  58.1018080  51.6517540   8.7813110  57.8696720
  51.7505530   9.8550570  58.9323040  55.9176450   7.9801060  55.7620050
  55.6171990   7.8566030  56.6623960  55.8113940   7.1209650  55.3535780
  68.6868370   7.7597460  50.4646730  67.8561330   7.8274110  50.9353960
  68.8640200   8.6501580  50.1613590  68.1424830   4.5044940  52.9680930
  68.9043740   5.0741590  53.0740620  68.1579200   3.9372140  53.7389240
  51.6429170   3.0282870  57.1988590  50.9878010   2.7594510  56.5548290
  52.4807120   2.9187350  56.7490570  69.1484800   5.3595040  57.8122860
  69.5193630   4.5762360  57.4058830  69.7886730   6.0484140  57.6340160
  68.1944000   4.7979310  50.1253450  68.4692840   5.7058190  49.9972670
  68.0054740   4.7341840  51.0615440  68.0909340   2.7348300  55.1182880
  67.7152940   1.9676230  54.6864170  67.3612460   3.1171000  55.6057810
  66.1894610  11.4950220  56.7521450  66.7853680  11.1734790  56.0755870
  66.4472760  11.0222040  57.5434720  57.1702540  10.4533760  59.7567310
  57.6867560   9.8421120  59.2315570  57.8199920  10.9562540  60.2478320
  51.8487440  11.5563150  56.1814660  51.6809480  10.9233830  56.8796550
  50.9821950  11.7622550  55.8308850  53.4550140  10.2496380  53.6264800
  52.9297760  10.6304410  52.9226760  53.3794720  10.8747150  54.3474510
  68.2115460  11.8083920  54.9478740  68.3867650  11.1221660  54.3039660
  67.5137030  12.3330970  54.5555410  56.0543110  12.1978760  52.5014050
  56.7861930  11.9138040  51.9537940  56.3136780  11.9592040  53.3913430
  55.2157900   8.3143490  52.5060380  54.5866780   8.7828590  53.0546210
  55.3305730   7.4692710  52.9406570  62.6707620   2.3649150  38.6561580
  62.5901670   1.4503760  38.3853290  62.2572040   2.8616220  37.9501290
  60.8025660   4.1428170  40.5370850  60.0267760   3.6628610  40.8269420
  61.4538590   3.4633820  40.3627010  54.8191490   4.4547980  41.4146610
  53.9876370   4.1996690  41.8143120  55.4272470   4.5258750  42.1504530
  64.8233090   8.5488360  39.3169980  64.3614620   7.7775600  39.6457150
  65.6358640   8.5754430  39.8222430  54.7992750   8.4888070  41.6104630
  55.1020790   7.5985810  41.4314850  55.5436340   9.0458290  41.3826880
  51.1916450   2.0155520  41.0828700  51.7632560   1.2477720  41.0832340
  51.1917990   2.3144280  40.1735310  61.0496400  10.8346370  38.9373970
  60.4307840  11.2903870  38.3668410  61.9048180  10.9897830  38.5363670
  60.2434650   6.8185360  40.5441010  60.1742930   5.8775300  40.3830140
  61.0054510   6.9086770  41.1163580  61.9159750   5.7185610  36.3305880
  61.2977020   6.1835060  35.7668600  62.4283000   6.4113090  36.7475390
  56.7791510   5.2461480  43.0089480  56.4460890   5.8730400  43.6510550
  56.9558190   5.7723360  42.2291150  55.9910610   7.2142280  44.8238660
  56.6084610   7.8893360  44.5423110  55.1303730   7.6230260  44.7326160
  51.2842950   6.4042140  33.7045510  50.9070930   6.8929240  32.9730410
  51.5416020   7.0767420  34.3352040  66.9088200   8.6781690  42.7393300
  66.2251720   9.3480800  42.7309970  67.4482490   8.8762340  41.9738160
  64.4446940  10.5225820  41.4538480  64.4574100  10.1188110  40.5860740
  63.8922160  11.2973110  41.3499910  65.7392360   7.2442040  36.5428650
  65.6288690   6.3016370  36.6678070  65.7360610   7.6057680  37.4291410
  63.8432380   5.4255660  42.7821090  64.2601170   5.2115770  41.9474550
  64.5672200   5.6828450  43.3529710  61.2812640   2.8707360  35.8991140
  60.3541920   2.8044740  36.1279610  61.4337460   3.8087490  35.7846380
  67.7894480   3.8242880  42.8737330  66.9613110   3.8935970  42.3987460
  68.3844960   4.4097190  42.4053160  65.3109930   4.4327660  36.4026390
  64.6922350   4.0947210  35.7552690  65.2934380   3.7887420  37.1105580
  56.8869280   3.3972100  38.6810870  56.4826280   2.6849350  38.1856770
  56.9732400   3.0525340  39.5698910  57.3550980   7.0839660  40.8450080
  57.0579270   6.4785130  40.1657860  58.3050800   7.1216970  40.7339440
  65.4436590  10.6571530  44.5073180  64.9667150  11.4643720  44.3145790
  64.7598380  10.0049860  44.6599390  63.4874630   3.6714470  33.4099140
  63.9267910   2.8336900  33.2636960  64.2003050   4.3043870  33.4963280
  55.2740630   3.6934670  46.0715250  55.1348400   4.5657470  46.4402650
  54.3921990   3.3507480  45.9263190  61.5970010   8.6110540  37.3780380
  62.0365920   9.3534870  36.9635770  61.5356900   8.8537110  38.3019340
  57.0720980   9.6356370  48.2800400  57.0436410  10.0399320  47.4128830
  56.9085950   8.7066730  48.1172000  53.5873910   2.2917080  36.1817520
  53.4671510   3.0179170  35.5698790  53.2774800   1.5219990  35.7045430
  69.0235800  10.4183470  49.5764570  69.4995520  10.8966360  50.2553650
  69.6442960  10.3500960  48.8510070  51.2259280   5.4632220  41.9886160
  51.3039700   5.5980990  41.0441880  51.8400960   4.7548110  42.1814280
  52.4706910   7.1632410  38.3992340  52.0634990   7.3047000  37.5445940
  53.3619920   6.8792570  38.1963550  68.4269050   7.6096320  46.7364580
  68.5532110   7.3708200  45.8181760  68.4690430   6.7780860  47.2086660
  62.2885790  11.3124320  45.3059390  62.8030460  11.2232330  46.1081820
  61.4454870  11.6584020  45.5987300  64.2640190  11.5979660  34.7343390
  64.1041330  11.3082600  35.6325220  64.0986900  10.8219790  34.1988620
  56.7428570  11.3778190  36.5115010  56.5671050  10.4613730  36.2982810
  55.8884310  11.7365480  36.7512810  63.9666320   9.1067220  33.2941390
  63.2731480   9.1044510  32.6343670  64.7089180   8.6826540  32.8635560
  63.5316250  10.7329930  37.3689880  63.9873200   9.9519310  37.6828500
  63.8708770  11.4436750  37.9131060  51.2818800   6.5046390  44.5280620
  51.4449840   6.0351750  43.7099990  51.7471250   5.9969950  45.1929460
  57.7788600   1.9785800  32.8109700  57.2105500   1.5304050  32.1845610
  58.4877600   2.3378580  32.2774850  52.8557780   5.8797820  46.6876430
  52.4712570   5.2391490  47.2859390  53.1669970   6.5833940  47.2571160
  59.0054920   2.7274360  42.1685050  59.3725050   2.2532930  42.9146390
  58.8159980   3.6015930  42.5093390  56.7954290   1.7683000  44.4869260
  56.4911360   2.6474980  44.7119620  57.7500750   1.8282790  44.5226700
  55.3236080   5.9743990  35.0836110  54.5498340   5.4341610  34.9234830
  56.0530710   5.4550600  34.7453870  66.0824060   4.9709350  40.8762500
  66.8023180   5.4664640  40.4858610  65.8805880   4.2927240  40.2316370
  61.4642860   5.0418410  46.7631500  61.3980170   4.1214080  46.5089090
  60.8348000   5.1393850  47.4776140  55.3673480   5.6424370  38.7214920
  55.8852150   4.8392630  38.6671810  54.9157500   5.5803510  39.5631750
  60.2542980   6.9090650  33.9942220  60.5958680   7.6532880  33.4985540
  59.4255690   7.2221770  34.3567050  52.8518020   2.6085740  45.6340620
  52.4932960   3.2739590  46.2213960  52.5572580   1.7769290  46.0053240
  56.0531140   3.0669980  48.5180170  55.7531280   3.2127160  47.6207990
  56.8242380   2.5075270  48.4253560  61.3959590   7.8638980  46.5135300
  61.4104130   6.9319940  46.2954210  60.6884690   7.9498740  47.1525070
  66.5296660   2.0478800  32.7833910  66.4460380   2.4793020  31.9330350
  67.2490850   2.5077150  33.2160730  67.6070800   4.5046320  45.8603880
  66.8818990   5.0975100  45.6633270  68.1346260   4.4969860  45.0617250
  67.5583910   8.9021060  35.5116040  66.9160070   8.2476680  35.7859760
  67.1714570   9.3076150  34.7356710  63.1370390   6.2306490  39.3587730
  63.4894210   5.6334620  38.6989100  62.2532720   5.9050720  39.5295980
  59.2233670   6.9904180  36.7658140  59.9104800   7.5373390  37.1465730
  58.4366090   7.5344910  36.8007750  51.3626070   2.6077000  32.2575220
  52.2320920   2.8901800  32.5411140  50.8716390   3.4212870  32.1424030
  58.5260880   3.9950210  36.3783500  58.9823660   4.8055460  36.6043690
  58.1749090   3.6773350  37.2101990  60.8293490   9.5056550  43.6075800
  61.4735710   9.7115930  44.2849220  61.1922930   8.7444950  43.1546650
  62.1025570   7.5088900  42.3253250  62.7447800   6.8082060  42.4385420
  62.6274920   8.2887340  42.1450140  65.9481290   7.7937520  32.0492390
  65.7218870   7.0767960  32.6417030  65.5577490   7.5449960  31.2114140
  63.8763190   8.3083800  45.5289310  64.2119430   8.8950490  46.2067230
  62.9563530   8.1776510  45.7587100  51.7297320  11.8204380  32.8236850
  52.0894960  12.4193720  32.1694120  51.5889660  12.3664270  33.5971880
  65.5297540   5.7109460  33.7106550  65.2419240   6.1722150  34.4984430
  66.3249710   5.2507230  33.9790770  51.7139180  10.0859240  47.2979250
  51.8230300   9.1453980  47.1574640  51.0619740  10.3513990  46.6492980
  59.7051770   8.3575130  48.6977370  59.3848640   7.6384370  49.2423060
  59.0310130   9.0330200  48.7713430  57.7465940   9.2035580  33.6410520
  57.7376040   9.9365270  33.0255030  56.8264300   8.9567160  33.7337480
  53.3472580   4.4250470  34.3857280  52.7400530   5.1649370  34.3952580
  53.8221930   4.5149830  33.5595480  60.7325540   9.2663820  32.3035710
  60.8337520   9.0627810  31.3737690  59.8327280   9.0122100  32.5083490
  59.3743650  11.7850140  36.9983380  59.6285150  11.7471530  36.0762750
  58.4256130  11.6583470  36.9911630  65.3796230   2.7042020  38.5741890
  64.4386370   2.7192250  38.7489580  65.6940300   1.9177980  39.0202190
  55.3577870   4.3861620  32.1345850  56.1241140   4.2742980  32.6971280
  55.4352560   3.6899590  31.4822620  67.3821810   9.8750870  40.2496150
  67.5069230  10.6982040  40.7219960  68.2487370   9.6641600  39.9020300
  54.8539340  11.9682080  39.9213280  55.5901820  11.4197540  40.1921850
  55.2380260  12.8338090  39.7819270  51.7384820   8.0355650  35.7954790
  50.8124600   8.2776790  35.7860200  52.2041250   8.8629910  35.6739540
  53.8597620  11.1528150  49.1098860  54.6610350  11.4740200  49.5234260
  53.3449440  10.7923730  49.8318770  57.9641650  11.1412390  31.7438850
  58.7570260  11.4301220  31.2920640  57.4446000  10.7104560  31.0651330
  62.6962250   7.2608020  49.0574270  62.0900410   7.2839620  48.3170020
  62.3916360   6.5291060  49.5941520  64.1262620  10.9888310  47.6683680
  65.0784370  10.9046330  47.6183920  63.9790840  11.6530020  48.3417470
  67.0171820  10.3682520  33.1675590  66.7313330   9.9547660  32.3529770
  66.8191370  11.2970230  33.0476110  51.5795430   3.6401610  48.0534910
  52.0834450   3.0608890  48.6251140  50.8402850   3.9241840  48.5911280
  58.4819050   6.3615800  31.6081200  58.3769690   5.7468150  32.3342580
  58.3143270   5.8381690  30.8244210  58.6333370   5.0472600  47.5870430
  57.8679040   5.6157600  47.5025100  58.8149330   4.7548810  46.6938660
  61.7221780   5.4235830  32.2123190  61.1731880   5.8705130  32.8565930
  62.3441040   4.9185080  32.7360860  65.7756720   6.7777930  48.1445450
  66.5166190   7.1153690  47.6412910  65.0129400   6.9469990  47.5915220
  53.6118510   1.7831200  48.9484980  53.6523850   1.4845070  49.8570210
  54.4664010   2.1838810  48.7892500  57.3896900   4.3826750  34.1088490
  57.8113320   4.2166620  34.9519880  57.5147740   3.5726980  33.6143630
  59.9024540   3.4064360  31.3565590  60.4230200   2.6913380  30.9906740
  60.5492940   4.0450230  31.6566100  64.4502380   4.8292760  46.6800660
  64.8643400   4.9837840  47.5291080  63.5153380   4.9547980  46.8426440
  64.9224550   2.1688920  48.6839810  65.5045320   1.4141240  48.5960290
  65.0986320   2.6996360  47.9071290  59.2117610   4.7813240  44.6496590
  59.6305720   5.6245970  44.4772830  58.2926240   4.9185280  44.4203370
  61.5481510   2.5129420  46.0334430  61.6677720   1.9170560  46.7729270
  62.4075510   2.5499110  45.6135730  63.8869410   3.0666610  44.6096940
  63.3604630   3.5909230  44.0062080  64.2300750   3.6994000  45.2406670
  57.0625030  11.0866250  45.7654320  56.5246120  11.8112310  45.4463020
  57.3158990  10.6096590  44.9751660  59.9187240  12.3217460  46.0240970
  59.8445940  13.2252600  46.3313340  59.0166080  12.0029360  45.9963040
  60.4672570  11.4875970  33.6467330  61.3623360  11.8260940  33.6686090
  60.4990200  10.7655380  33.0191610  54.1068730   6.8603020  31.8754330
  54.5443600   7.4032690  32.5311910  54.5916460   6.0349970  31.8850670
  51.3214530   9.6492050  39.3274590  51.6517540   8.7813110  39.0953230
  51.7505530   9.8550570  40.1579550  55.9176450   7.9801060  36.9876560
  55.6171990   7.8566030  37.8880470  55.8113940   7.1209650  36.5792290
  51.8104740  10.5162640  42.0656220  51.3735730  10.6963440  42.8980370
  52.3782420  11.2737260  41.9237940  67.4466920  10.0179640  46.3533530
  66.8468910  10.0772200  45.6097450  67.5760820   9.0784620  46.4830380
  68.6868370   7.7597460  31.6903240  67.8561330   7.8274110  32.1610470
  68.8640200   8.6501580  31.3870100  68.1424830   4.5044940  34.1937440
  68.9043740   5.0741590  34.2997130  68.1579200   3.9372140  34.9645750
  51.6429170   3.0282870  38.4245100  50.9878010   2.7594510  37.7804800
  52.4807120   2.9187350  37.9747080  69.1484800   5.3595040  39.0379370
  69.5193630   4.5762360  38.6315340  69.7886730   6.0484140  38.8596670
  66.1318560   6.7431620  44.4509690  65.3178400   7.1728780  44.7135480
  66.5392760   7.3550030  43.8378740  68.1944000   4.7979310  31.3509960
  68.4692840   5.7058190  31.2229180  68.0054740   4.7341840  32.2871950
  68.0909340   2.7348300  36.3439390  67.7152940   1.9676230  35.9120680
  67.3612460   3.1171000  36.8314320  52.6805100   3.4135440  42.9648440
  53.0478140   3.3262840  43.8444460  52.1115920   2.6501990  42.8655300
  67.4808960   1.8819820  45.9778910  67.2495050   1.6532570  45.0776860
  67.7413510   2.8019370  45.9323800  66.1894610  11.4950220  37.9777960
  66.7853680  11.1734790  37.3012380  66.4472760  11.0222040  38.7691230
  54.0957180   7.9268130  48.1268590  54.0526810   7.5561040  49.0083050
  54.2268190   8.8645700  48.2670410  57.7963210   9.4827720  43.7278310
  57.5554570   9.7502280  42.8408830  58.7365850   9.6533450  43.7829170
  69.0567370  11.5022100  44.5288950  68.5625650  11.8990970  43.8116080
  68.4480660  10.8771310  44.9226230  53.9345210  10.8730380  45.2466370
  53.3405530  10.7415080  45.9856410  53.9269050  10.0368520  44.7808470
  66.7406820  12.1445520  41.8075690  66.2809790  12.8961330  41.4333710
  66.1119280  11.4251990  41.7490490  53.5657440   8.2388760  44.1974410
  52.8391500   7.6194050  44.1300360  53.6266590   8.6329370  43.3272490
  57.1702540  10.4533760  40.9823820  57.6867560   9.8421120  40.4572080
  57.8199920  10.9562540  41.4734830  59.9098040  11.3442250  41.8092800
  60.1975850  11.0896550  40.9325810  60.4221260  10.7919610  42.3998370
  51.8487440  11.5563150  37.4071170  51.6809480  10.9233830  38.1053060
  50.9821950  11.7622550  37.0565360  53.4550140  10.2496380  34.8521310
  52.9297760  10.6304410  34.1483270  53.3794720  10.8747150  35.5731020
  59.9770400  12.2658350  49.1761000  60.9037710  12.0302620  49.2196960
  59.9620830  13.0930350  48.6947030  68.2115460  11.8083920  36.1735250
  68.3867650  11.1221660  35.5296170  67.5137030  12.3330970  35.7811920
  56.0543110  12.1978760  33.7270560  56.7861930  11.9138040  33.1794450
  56.3136780  11.9592040  34.6169940  55.2157900   8.3143490  33.7316890
  54.5866780   8.7828590  34.2802720  55.3305730   7.4692710  34.1663080
  66.5447960  11.4928210  49.0002040  67.3373280  10.9977440  48.7928000
  66.8381110  12.1718350  49.6077650  62.6707620   2.3649150  19.8818090
  62.5901670   1.4503760  19.6109800  62.2572040   2.8616220  19.1757800
  60.8025660   4.1428170  21.7627360  60.0267760   3.6628610  22.0525930
  61.4538590   3.4633820  21.5883520  54.8191490   4.4547980  22.6403120
  53.9876370   4.1996690  23.0399630  55.4272470   4.5258750  23.3761040
  64.8233090   8.5488360  20.5426490  64.3614620   7.7775600  20.8713660
  65.6358640   8.5754430  21.0478940  54.7992750   8.4888070  22.8361140
  55.1020790   7.5985810  22.6571360  55.5436340   9.0458290  22.6083390
  51.1916450   2.0155520  22.3085210  51.7632560   1.2477720  22.3088850
  51.1917990   2.3144280  21.3991820  61.0496400  10.8346370  20.1630480
  60.4307840  11.2903870  19.5924920  61.9048180  10.9897830  19.7620180
  60.2434650   6.8185360  21.7697520  60.1742930   5.8775300  21.6086650
  61.0054510   6.9086770  22.3420090  61.9159750   5.7185610  17.5562390
  61.2977020   6.1835060  16.9925110  62.4283000   6.4113090  17.9731900
  56.7791510   5.2461480  24.2345990  56.4460890   5.8730400  24.8767060
  56.9558190   5.7723360  23.4547660  55.9910610   7.2142280  26.0495170
  56.6084610   7.8893360  25.7679620  55.1303730   7.6230260  25.9582670
  51.2842950   6.4042140  14.9302020  50.9070930   6.8929240  14.1986920
  51.5416020   7.0767420  15.5608550  66.9088200   8.6781690  23.9649810
  66.2251720   9.3480800  23.9566480  67.4482490   8.8762340  23.1994670
  64.4446940  10.5225820  22.6794990  64.4574100  10.1188110  21.8117250
  63.8922160  11.2973110  22.5756420  65.7392360   7.2442040  17.7685160
  65.6288690   6.3016370  17.8934580  65.7360610   7.6057680  18.6547920
  63.8432380   5.4255660  24.0077600  64.2601170   5.2115770  23.1731060
  64.5672200   5.6828450  24.5786220  61.2812640   2.8707360  17.1247650
  60.3541920   2.8044740  17.3536120  61.4337460   3.8087490  17.0102890
  67.7894480   3.8242880  24.0993840  66.9613110   3.8935970  23.6243970
  68.3844960   4.4097190  23.6309670  65.3109930   4.4327660  17.6282900
  64.6922350   4.0947210  16.9809200  65.2934380   3.7887420  18.3362090
  56.8869280   3.3972100  19.9067380  56.4826280   2.6849350  19.4113280
  56.9732400   3.0525340  20.7955420  57.3550980   7.0839660  22.0706590
  57.0579270   6.4785130  21.3914370  58.3050800   7.1216970  21.9595950
  65.4436590  10.6571530  25.7329690  64.9667150  11.4643720  25.5402300
  64.7598380  10.0049860  25.8855900  56.4469410   6.8221350  28.7214390
  55.5497940   7.0461320  28.9687790  56.4722280   6.9456290  27.7725790
  63.4874630   3.6714470  14.6355650  63.9267910   2.8336900  14.4893470
  64.2003050   4.3043870  14.7219790  55.2740630   3.6934670  27.2971760
  55.1348400   4.5657470  27.6659160  54.3921990   3.3507480  27.1519700
  61.5970010   8.6110540  18.6036890  62.0365920   9.3534870  18.1892280
  61.5356900   8.8537110  19.5275850  57.0720980   9.6356370  29.5056910
  57.0436410  10.0399320  28.6385340  56.9085950   8.7066730  29.3428510
  53.5873910   2.2917080  17.4074030  53.4671510   3.0179170  16.7955300
  53.2774800   1.5219990  16.9301940  69.0235800  10.4183470  30.8021080
  69.4995520  10.8966360  31.4810160  69.6442960  10.3500960  30.0766580
  51.2259280   5.4632220  23.2142670  51.3039700   5.5980990  22.2698390
  51.8400960   4.7548110  23.4070790  52.4706910   7.1632410  19.6248850
  52.0634990   7.3047000  18.7702450  53.3619920   6.8792570  19.4220060
  68.4269050   7.6096320  27.9621090  68.5532110   7.3708200  27.0438270
  68.4690430   6.7780860  28.4343170  62.2885790  11.3124320  26.5315900
  62.8030460  11.2232330  27.3338330  61.4454870  11.6584020  26.8243810
  64.2640190  11.5979660  15.9599900  64.1041330  11.3082600  16.8581730
  64.0986900  10.8219790  15.4245130  56.7428570  11.3778190  17.7371520
  56.5671050  10.4613730  17.5239320  55.8884310  11.7365480  17.9769320
  63.9666320   9.1067220  14.5197900  63.2731480   9.1044510  13.8600180
  64.7089180   8.6826540  14.0892070  63.5316250  10.7329930  18.5946390
  63.9873200   9.9519310  18.9085010  63.8708770  11.4436750  19.1387570
  51.2818800   6.5046390  25.7537130  51.4449840   6.0351750  24.9356500
  51.7471250   5.9969950  26.4185970  57.7788600   1.9785800  14.0366210
  57.2105500   1.5304050  13.4102120  58.4877600   2.3378580  13.5031360
  52.8557780   5.8797820  27.9132940  52.4712570   5.2391490  28.5115900
  53.1669970   6.5833940  28.4827670  59.0054920   2.7274360  23.3941560
  59.3725050   2.2532930  24.1402900  58.8159980   3.6015930  23.7349900
  56.7954290   1.7683000  25.7125770  56.4911360   2.6474980  25.9376130
  57.7500750   1.8282790  25.7483210  55.3236080   5.9743990  16.3092620
  54.5498340   5.4341610  16.1491340  56.0530710   5.4550600  15.9710380
  66.0824060   4.9709350  22.1019010  66.8023180   5.4664640  21.7115120
  65.8805880   4.2927240  21.4572880  61.4642860   5.0418410  27.9888010
  61.3980170   4.1214080  27.7345600  60.8348000   5.1393850  28.7032650
  55.3673480   5.6424370  19.9471430  55.8852150   4.8392630  19.8928320
  54.9157500   5.5803510  20.7888260  60.2542980   6.9090650  15.2198730
  60.5958680   7.6532880  14.7242050  59.4255690   7.2221770  15.5823560
  52.8518020   2.6085740  26.8597130  52.4932960   3.2739590  27.4470470
  52.5572580   1.7769290  27.2309750  56.0531140   3.0669980  29.7436680
  55.7531280   3.2127160  28.8464500  56.8242380   2.5075270  29.6510070
  61.3959590   7.8638980  27.7391810  61.4104130   6.9319940  27.5210720
  60.6884690   7.9498740  28.3781580  66.5296660   2.0478800  14.0090420
  66.4460380   2.4793020  13.1586860  67.2490850   2.5077150  14.4417240
  67.6070800   4.5046320  27.0860390  66.8818990   5.0975100  26.8889780
  68.1346260   4.4969860  26.2873760  67.5583910   8.9021060  16.7372550
  66.9160070   8.2476680  17.0116270  67.1714570   9.3076150  15.9613220
  63.1370390   6.2306490  20.5844240  63.4894210   5.6334620  19.9245610
  62.2532720   5.9050720  20.7552490  59.2233670   6.9904180  17.9914650
  59.9104800   7.5373390  18.3722240  58.4366090   7.5344910  18.0264260
  51.3626070   2.6077000  13.4831730  52.2320920   2.8901800  13.7667650
  50.8716390   3.4212870  13.3680540  58.5260880   3.9950210  17.6040010
  58.9823660   4.8055460  17.8300200  58.1749090   3.6773350  18.4358500
  60.8293490   9.5056550  24.8332310  61.4735710   9.7115930  25.5105730
  61.1922930   8.7444950  24.3803160  62.1025570   7.5088900  23.5509760
  62.7447800   6.8082060  23.6641930  62.6274920   8.2887340  23.3706650
  65.9481290   7.7937520  13.2748900  65.7218870   7.0767960  13.8673540
  65.5577490   7.5449960  12.4370650  63.8763190   8.3083800  26.7545820
  64.2119430   8.8950490  27.4323740  62.9563530   8.1776510  26.9843610
  51.7297320  11.8204380  14.0493360  52.0894960  12.4193720  13.3950630
  51.5889660  12.3664270  14.8228390  65.5297540   5.7109460  14.9363060
  65.2419240   6.1722150  15.7240940  66.3249710   5.2507230  15.2047280
  51.7139180  10.0859240  28.5235760  51.8230300   9.1453980  28.3831150
  51.0619740  10.3513990  27.8749490  59.7051770   8.3575130  29.9233880
  59.3848640   7.6384370  30.4679570  59.0310130   9.0330200  29.9969940
  57.7465940   9.2035580  14.8667030  57.7376040   9.9365270  14.2511540
  56.8264300   8.9567160  14.9593990  53.3472580   4.4250470  15.6113790
  52.7400530   5.1649370  15.6209090  53.8221930   4.5149830  14.7851990
  60.7325540   9.2663820  13.5292220  60.8337520   9.0627810  12.5994200
  59.8327280   9.0122100  13.7340000  59.3743650  11.7850140  18.2239890
  59.6285150  11.7471530  17.3019260  58.4256130  11.6583470  18.2168140
  65.3796230   2.7042020  19.7998400  64.4386370   2.7192250  19.9746090
  65.6940300   1.9177980  20.2458700  55.3577870   4.3861620  13.3602360
  56.1241140   4.2742980  13.9227790  55.4352560   3.6899590  12.7079130
  67.3821810   9.8750870  21.4752660  67.5069230  10.6982040  21.9476470
  68.2487370   9.6641600  21.1276810  54.8539340  11.9682080  21.1469790
  55.5901820  11.4197540  21.4178360  55.2380260  12.8338090  21.0075780
  51.7384820   8.0355650  17.0211300  50.8124600   8.2776790  17.0116710
  52.2041250   8.8629910  16.8996050  53.8597620  11.1528150  30.3355370
  54.6610350  11.4740200  30.7490770  53.3449440  10.7923730  31.0575280
  57.9641650  11.1412390  12.9695360  58.7570260  11.4301220  12.5177150
  57.4446000  10.7104560  12.2907840  62.6962250   7.2608020  30.2830780
  62.0900410   7.2839620  29.5426530  62.3916360   6.5291060  30.8198030
  64.1262620  10.9888310  28.8940190  65.0784370  10.9046330  28.8440430
  63.9790840  11.6530020  29.5673980  67.0171820  10.3682520  14.3932100
  66.7313330   9.9547660  13.5786280  66.8191370  11.2970230  14.2732620
  51.5795430   3.6401610  29.2791420  52.0834450   3.0608890  29.8507650
  50.8402850   3.9241840  29.8167790  58.4819050   6.3615800  12.8337710
  58.3769690   5.7468150  13.5599090  58.3143270   5.8381690  12.0500720
  58.6333370   5.0472600  28.8126940  57.8679040   5.6157600  28.7281610
  58.8149330   4.7548810  27.9195170  61.7221780   5.4235830  13.4379700
  61.1731880   5.8705130  14.0822440  62.3441040   4.9185080  13.9617370
  65.7756720   6.7777930  29.3701960  66.5166190   7.1153690  28.8669420
  65.0129400   6.9469990  28.8171730  53.6118510   1.7831200  30.1741490
  53.6523850   1.4845070  31.0826720  54.4664010   2.1838810  30.0149010
  57.3896900   4.3826750  15.3345000  57.8113320   4.2166620  16.1776390
  57.5147740   3.5726980  14.8400140  59.9024540   3.4064360  12.5822100
  60.4230200   2.6913380  12.2163250  60.5492940   4.0450230  12.8822610
  64.4502380   4.8292760  27.9057170  64.8643400   4.9837840  28.7547590
  63.5153380   4.9547980  28.0682950  64.9224550   2.1688920  29.9096320
  65.5045320   1.4141240  29.8216800  65.0986320   2.6996360  29.1327800
  59.2117610   4.7813240  25.8753100  59.6305720   5.6245970  25.7029340
  58.2926240   4.9185280  25.6459880  61.5481510   2.5129420  27.2590940
  61.6677720   1.9170560  27.9985780  62.4075510   2.5499110  26.8392240
  63.8869410   3.0666610  25.8353450  63.3604630   3.5909230  25.2318590
  64.2300750   3.6994000  26.4663180  57.0625030  11.0866250  26.9910830
  56.5246120  11.8112310  26.6719530  57.3158990  10.6096590  26.2008170
  59.9187240  12.3217460  27.2497480  59.8445940  13.2252600  27.5569850
  59.0166080  12.0029360  27.2219550  60.4672570  11.4875970  14.8723840
  61.3623360  11.8260940  14.8942600  60.4990200  10.7655380  14.2448120
  54.1068730   6.8603020  13.1010840  54.5443600   7.4032690  13.7568420
  54.5916460   6.0349970  13.1107180  51.3214530   9.6492050  20.5531100
  51.6517540   8.7813110  20.3209740  51.7505530   9.8550570  21.3836060
  55.9176450   7.9801060  18.2133070  55.6171990   7.8566030  19.1136980
  55.8113940   7.1209650  17.8048800  51.8104740  10.5162640  23.2912730
  51.3735730  10.6963440  24.1236880  52.3782420  11.2737260  23.1494450
  67.4466920  10.0179640  27.5790040  66.8468910  10.0772200  26.8353960
  67.5760820   9.0784620  27.7086890  68.6868370   7.7597460  12.9159750
  67.8561330   7.8274110  13.3866980  68.8640200   8.6501580  12.6126610
  68.1424830   4.5044940  15.4193950  68.9043740   5.0741590  15.5253640
  68.1579200   3.9372140  16.1902260  51.6429170   3.0282870  19.6501610
  50.9878010   2.7594510  19.0061310  52.4807120   2.9187350  19.2003590
  69.1484800   5.3595040  20.2635880  69.5193630   4.5762360  19.8571850
  69.7886730   6.0484140  20.0853180  66.1318560   6.7431620  25.6766200
  65.3178400   7.1728780  25.9391990  66.5392760   7.3550030  25.0635250
  68.1944000   4.7979310  12.5766470  68.4692840   5.7058190  12.4485690
  68.0054740   4.7341840  13.5128460  68.0909340   2.7348300  17.5695900
  67.7152940   1.9676230  17.1377190  67.3612460   3.1171000  18.0570830
  52.6805100   3.4135440  24.1904950  53.0478140   3.3262840  25.0700970
  52.1115920   2.6501990  24.0911810  67.4808960   1.8819820  27.2035420
  67.2495050   1.6532570  26.3033370  67.7413510   2.8019370  27.1580310
  66.1894610  11.4950220  19.2034470  66.7853680  11.1734790  18.5268890
  66.4472760  11.0222040  19.9947740  54.0957180   7.9268130  29.3525100
  54.0526810   7.5561040  30.2339560  54.2268190   8.8645700  29.4926920
  57.7963210   9.4827720  24.9534820  57.5554570   9.7502280  24.0665340
  58.7365850   9.6533450  25.0085680  69.0567370  11.5022100  25.7545460
  68.5625650  11.8990970  25.0372590  68.4480660  10.8771310  26.1482740
  53.9345210  10.8730380  26.4722880  53.3405530  10.7415080  27.2112920
  53.9269050  10.0368520  26.0064980  66.7406820  12.1445520  23.0332200
  66.2809790  12.8961330  22.6590220  66.1119280  11.4251990  22.9747000
  53.5657440   8.2388760  25.4230920  52.8391500   7.6194050  25.3556870
  53.6266590   8.6329370  24.5529000  57.1702540  10.4533760  22.2080330
  57.6867560   9.8421120  21.6828590  57.8199920  10.9562540  22.6991340
  59.9098040  11.3442250  23.0349310  60.1975850  11.0896550  22.1582320
  60.4221260  10.7919610  23.6254880  51.8487440  11.5563150  18.6327680
  51.6809480  10.9233830  19.3309570  50.9821950  11.7622550  18.2821870
  53.4550140  10.2496380  16.0777820  52.9297760  10.6304410  15.3739780
  53.3794720  10.8747150  16.7987530  59.9770400  12.2658350  30.4017510
  60.9037710  12.0302620  30.4453470  59.9620830  13.0930350  29.9203540
  68.2115460  11.8083920  17.3991760  68.3867650  11.1221660  16.7552680
  67.5137030  12.3330970  17.0068430  56.0543110  12.1978760  14.9527070
  56.7861930  11.9138040  14.4050960  56.3136780  11.9592040  15.8426450
  55.2157900   8.3143490  14.9573400  54.5866780   8.7828590  15.5059230
  55.3305730   7.4692710  15.3919590  66.5447960  11.4928210  30.2258550
  67.3373280  10.9977440  30.0184510  66.8381110  12.1718350  30.8334160
  60.8025660   4.1428170   2.9883870  60.0267760   3.6628610   3.2782440
  61.4538590   3.4633820   2.8140030  54.8191490   4.4547980   3.8659630
  53.9876370   4.1996690   4.2656140  55.4272470   4.5258750   4.6017550
  64.8233090   8.5488360   1.7683000  64.3614620   7.7775600   2.0970170
  65.6358640   8.5754430   2.2735450  54.7992750   8.4888070   4.0617650
  55.1020790   7.5985810   3.8827870  55.5436340   9.0458290   3.8339900
  51.1916450   2.0155520   3.5341720  51.7632560   1.2477720   3.5345360
  51.1917990   2.3144280   2.6248330  60.2434650   6.8185360   2.9954030
  60.1742930   5.8775300   2.8343160  61.0054510   6.9086770   3.5676600
  56.7791510   5.2461480   5.4602500  56.4460890   5.8730400   6.1023570
  56.9558190   5.7723360   4.6804170  55.9910610   7.2142280   7.2751680
  56.6084610   7.8893360   6.9936130  55.1303730   7.6230260   7.1839180
  66.9088200   8.6781690   5.1906320  66.2251720   9.3480800   5.1822990
  67.4482490   8.8762340   4.4251180  64.4446940  10.5225820   3.9051500
  64.4574100  10.1188110   3.0373760  63.8922160  11.2973110   3.8012930
  63.8432380   5.4255660   5.2334110  64.2601170   5.2115770   4.3987570
  64.5672200   5.6828450   5.8042730  67.7894480   3.8242880   5.3250350
  66.9613110   3.8935970   4.8500480  68.3844960   4.4097190   4.8566180
  57.3550980   7.0839660   3.2963100  57.0579270   6.4785130   2.6170880
  58.3050800   7.1216970   3.1852460  65.4436590  10.6571530   6.9586200
  64.9667150  11.4643720   6.7658810  64.7598380  10.0049860   7.1112410
  56.4469410   6.8221350   9.9470900  55.5497940   7.0461320  10.1944300
  56.4722280   6.9456290   8.9982300  55.2740630   3.6934670   8.5228270
  55.1348400   4.5657470   8.8915670  54.3921990   3.3507480   8.3776210
  57.0720980   9.6356370  10.7313420  57.0436410  10.0399320   9.8641850
  56.9085950   8.7066730  10.5685020  69.0235800  10.4183470  12.0277590
  69.4995520  10.8966360  12.7066670  69.6442960  10.3500960  11.3023090
  51.2259280   5.4632220   4.4399180  51.3039700   5.5980990   3.4954900
  51.8400960   4.7548110   4.6327300  68.4269050   7.6096320   9.1877600
  68.5532110   7.3708200   8.2694780  68.4690430   6.7780860   9.6599680
  62.2885790  11.3124320   7.7572410  62.8030460  11.2232330   8.5594840
  61.4454870  11.6584020   8.0500320  51.2818800   6.5046390   6.9793640
  51.4449840   6.0351750   6.1613010  51.7471250   5.9969950   7.6442480
  52.8557780   5.8797820   9.1389450  52.4712570   5.2391490   9.7372410
  53.1669970   6.5833940   9.7084180  59.0054920   2.7274360   4.6198070
  59.3725050   2.2532930   5.3659410  58.8159980   3.6015930   4.9606410
  56.7954290   1.7683000   6.9382280  56.4911360   2.6474980   7.1632640
  57.7500750   1.8282790   6.9739720  66.0824060   4.9709350   3.3275520
  66.8023180   5.4664640   2.9371630  65.8805880   4.2927240   2.6829390
  61.4642860   5.0418410   9.2144520  61.3980170   4.1214080   8.9602110
  60.8348000   5.1393850   9.9289160  52.8518020   2.6085740   8.0853640
  52.4932960   3.2739590   8.6726980  52.5572580   1.7769290   8.4566260
  56.0531140   3.0669980  10.9693190  55.7531280   3.2127160  10.0721010
  56.8242380   2.5075270  10.8766580  61.3959590   7.8638980   8.9648320
  61.4104130   6.9319940   8.7467230  60.6884690   7.9498740   9.6038090
  67.6070800   4.5046320   8.3116900  66.8818990   5.0975100   8.1146290
  68.1346260   4.4969860   7.5130270  60.8293490   9.5056550   6.0588820
  61.4735710   9.7115930   6.7362240  61.1922930   8.7444950   5.6059670
  62.1025570   7.5088900   4.7766270  62.7447800   6.8082060   4.8898440
  62.6274920   8.2887340   4.5963160  63.8763190   8.3083800   7.9802330
  64.2119430   8.8950490   8.6580250  62.9563530   8.1776510   8.2100120
  51.7139180  10.0859240   9.7492270  51.8230300   9.1453980   9.6087660
  51.0619740  10.3513990   9.1006000  59.7051770   8.3575130  11.1490390
  59.3848640   7.6384370  11.6936080  59.0310130   9.0330200  11.2226450
  67.3821810   9.8750870   2.7009170  67.5069230  10.6982040   3.1732980
  68.2487370   9.6641600   2.3533320  54.8539340  11.9682080   2.3726300
  55.5901820  11.4197540   2.6434870  55.2380260  12.8338090   2.2332290
  53.8597620  11.1528150  11.5611880  54.6610350  11.4740200  11.9747280
  53.3449440  10.7923730  12.2831790  62.6962250   7.2608020  11.5087290
  62.0900410   7.2839620  10.7683040  62.3916360   6.5291060  12.0454540
  64.1262620  10.9888310  10.1196700  65.0784370  10.9046330  10.0696940
  63.9790840  11.6530020  10.7930490  51.5795430   3.6401610  10.5047930
  52.0834450   3.0608890  11.0764160  50.8402850   3.9241840  11.0424300
  58.6333370   5.0472600  10.0383450  57.8679040   5.6157600   9.9538120
  58.8149330   4.7548810   9.1451680  65.7756720   6.7777930  10.5958470
  66.5166190   7.1153690  10.0925930  65.0129400   6.9469990  10.0428240
  53.6118510   1.7831200  11.3998000  53.6523850   1.4845070  12.3083230
  54.4664010   2.1838810  11.2405520  64.4502380   4.8292760   9.1313680
  64.8643400   4.9837840   9.9804100  63.5153380   4.9547980   9.2939460
  64.9224550   2.1688920  11.1352830  65.5045320   1.4141240  11.0473310
  65.0986320   2.6996360  10.3584310  59.2117610   4.7813240   7.1009610
  59.6305720   5.6245970   6.9285850  58.2926240   4.9185280   6.8716390
  61.5481510   2.5129420   8.4847450  61.6677720   1.9170560   9.2242290
  62.4075510   2.5499110   8.0648750  63.8869410   3.0666610   7.0609960
  63.3604630   3.5909230   6.4575100  64.2300750   3.6994000   7.6919690
  57.0625030  11.0866250   8.2167340  56.5246120  11.8112310   7.8976040
  57.3158990  10.6096590   7.4264680  59.9187240  12.3217460   8.4753990
  59.8445940  13.2252600   8.7826360  59.0166080  12.0029360   8.4476060
  51.3214530   9.6492050   1.7787610  51.6517540   8.7813110   1.5466250
  51.7505530   9.8550570   2.6092570  51.8104740  10.5162640   4.5169240
  51.3735730  10.6963440   5.3493390  52.3782420  11.2737260   4.3750960
  67.4466920  10.0179640   8.8046550  66.8468910  10.0772200   8.0610470
  67.5760820   9.0784620   8.9343400  66.1318560   6.7431620   6.9022710
  65.3178400   7.1728780   7.1648500  66.5392760   7.3550030   6.2891760
  52.6805100   3.4135440   5.4161460  53.0478140   3.3262840   6.2957480
  52.1115920   2.6501990   5.3168320  67.4808960   1.8819820   8.4291930
  67.2495050   1.6532570   7.5289880  67.7413510   2.8019370   8.3836820
  54.0957180   7.9268130  10.5781610  54.0526810   7.5561040  11.4596070
  54.2268190   8.8645700  10.7183430  57.7963210   9.4827720   6.1791330
  57.5554570   9.7502280   5.2921850  58.7365850   9.6533450   6.2342190
  69.0567370  11.5022100   6.9801970  68.5625650  11.8990970   6.2629100
  68.4480660  10.8771310   7.3739250  53.9345210  10.8730380   7.6979390
  53.3405530  10.7415080   8.4369430  53.9269050  10.0368520   7.2321490
  66.7406820  12.1445520   4.2588710  66.2809790  12.8961330   3.8846730
  66.1119280  11.4251990   4.2003510  53.5657440   8.2388760   6.6487430
  52.8391500   7.6194050   6.5813380  53.6266590   8.6329370   5.7785510
  57.1702540  10.4533760   3.4336840  57.6867560   9.8421120   2.9085100
  57.8199920  10.9562540   3.9247850  59.9098040  11.3442250   4.2605820
  60.1975850  11.0896550   3.3838830  60.4221260  10.7919610   4.8511390
  66.5447960  11.4928210  11.4515060  67.3373280  10.9977440  11.2441020
  66.8381110  12.1718350  12.0590670  43.8964130  96.2366600  57.4305070
  43.8158180  95.3221210  57.1596780  43.4828550  96.7333670  56.7244780
  42.0282170  98.0145620  59.3114340  41.2524270  97.5346060  59.6012910
  42.6795100  97.3351270  59.1370500  34.4539950  93.2867320  53.9732490
  33.5656650  93.6283290  53.8712370  34.7381140  93.0867640  53.0813320
  32.4172960  95.8872970  59.8572190  32.9889070  95.1195170  59.8575830
  32.4174500  96.1861730  58.9478800  42.4996330  93.4973190  59.5453430
  42.8761150  92.6245070  59.4327100  42.4015840  93.8331890  58.6543870
  36.6301340  91.8698820  55.0070870  36.7368090  92.7702550  55.3139630
  35.7193700  91.8216790  54.7165520  46.2820450  90.9923630  56.4781770
  47.1030070  90.5020200  56.5207250  46.3154530  91.5821290  57.2313610
  38.4709070  94.8385190  59.3396050  38.9787290  95.3366160  59.9801070
  39.0022310  94.0620390  59.1635410  46.5181930  92.9324010  59.2509310
  45.8137500  93.2208900  59.8312420  46.8794090  93.7424120  58.8908870
  49.5868850  92.3778800  59.6418520  48.6393760  92.4117780  59.7733950
  49.9118840  93.1917750  60.0267880  40.1188390  88.6775980  57.9374510
  40.4263370  88.1222870  57.2210010  39.1889090  88.8120440  57.7547500
  42.5069150  96.7424810  54.6734630  41.5798430  96.6762190  54.9023100
  42.6593970  97.6804940  54.5589870  42.4938230  93.0141810  51.6701790
  41.5541900  93.1755770  51.7554250  42.8121490  93.7327490  51.1237780
  46.5366440  98.3045110  55.1769880  45.9178860  97.9664660  54.5296180
  46.5190890  97.6604870  55.8849070  38.1125790  97.2689550  57.4554360
  37.7082790  96.5566800  56.9600260  38.1988910  96.9242790  58.3442400
  44.7131140  97.5431920  52.1842630  45.1524420  96.7054350  52.0380450
  45.4259560  98.1761320  52.2706770  48.2948280  88.7974730  50.4983670
  47.9820940  88.8901560  51.3982740  49.0560750  89.3755760  50.4481100
  34.8130420  96.1634530  54.9561010  34.6928020  96.8896620  54.3442280
  34.5031310  95.3937440  54.4788920  37.2794080  89.5069600  58.3384680
  36.8362230  90.2879140  58.0069200  37.8379070  89.8299490  59.0455620
  40.3952900  89.1280300  53.2190510  39.7707080  89.1240170  53.9443820
  40.3083020  88.2611260  52.8226480  39.3169980  90.0516930  60.1974280
  39.6142310  90.9579760  60.1166300  39.8655540  89.5635710  59.5833850
  37.0708300  94.6303170  56.0665930  36.8449220  94.4140340  56.9712550
  36.2900830  95.0631630  55.7211900  44.3006060  94.6366540  54.6656580
  43.7014950  95.3602340  54.4820200  44.8485670  94.5743320  53.8833030
  42.9070930  93.2730080  56.6959860  43.3000500  93.5902280  55.8828550
  43.2687780  92.3941960  56.8104380  31.9435100  89.8630880  58.9190060
  31.6548150  90.4333740  59.6315040  32.6880860  89.3835330  59.2821290
  32.1305330  93.8051000  50.1292780  32.0480000  94.7481760  50.2707770
  31.7788390  93.6625910  49.2505130  39.9303460  92.5390030  59.1963130
  39.9339520  92.0979980  58.3467670  40.8254580  92.8607360  59.3034950
  35.7805840  92.4216520  58.1557340  35.4405890  92.8991750  58.9124390
  35.0183160  91.9681640  57.7958440  39.9923610  93.5402110  52.1869890
  40.1136430  93.4988590  53.1355710  39.6072120  94.4026260  52.0316620
  39.0045110  95.8503250  51.5853190  38.4362010  95.4021500  50.9589100
  39.7134110  96.2096030  51.0518340  33.0951920  91.3435500  57.0722010
  32.8098840  90.9791170  57.9100630  33.0330780  90.6115960  56.4585150
  42.7690510  90.2364760  53.7935380  41.9555120  89.7377930  53.7180690
  42.5752460  91.0763010  53.3771730  45.4838900  94.6084410  52.0897540
  46.3718520  94.9201640  51.9148880  45.4543990  93.7356660  51.6978120
  47.7553170  95.9196250  51.5577400  47.6716890  96.3510470  50.7073840
  48.4747360  96.3794600  51.9904220  32.5882580  96.4794450  51.0318710
  33.4577430  96.7619250  51.3154630  32.0972900  97.2930320  50.9167520
  39.7517390  97.8667660  55.1526990  40.2080170  98.6772910  55.3787180
  39.4005600  97.5490800  55.9845480  35.6529170  88.2105310  55.6249510
  35.5243800  88.2023210  56.5734430  34.8291190  88.5488400  55.2740520
  47.5123910  91.4175680  53.6445220  46.8837070  91.5221350  52.9303450
  47.0175830  91.6372460  54.4339100  39.4807940  93.6961630  55.0603100
  38.7724090  94.1647970  55.5016710  39.7652420  93.0383640  55.6948290
  43.5123370  90.4212290  56.4998890  43.3891150  90.4398420  55.5508400
  44.4607930  90.4691230  56.6197290  37.6842960  92.0046710  52.4353810
  38.5333490  92.4416860  52.3694000  37.3174230  92.3166970  53.2625870
  46.6052740  96.5759470  57.3485380  45.6642880  96.5909700  57.5233070
  46.9196810  95.7895430  57.7945680  35.2781140  95.6904140  51.5922230
  35.3584730  94.7431650  51.7039630  36.1700890  96.0211020  51.6982890
  38.6153410  98.2544200  52.8831980  39.0369830  98.0884070  53.7263370
  38.7404250  97.4444430  52.3887120  41.1281050  97.2781810  50.1309080
  41.6486710  96.5630830  49.7650230  41.7749450  97.9167680  50.4309590
  37.5112310  94.3277430  49.8290140  37.3101370  93.4644790  50.1903480
  37.3404360  94.2410790  48.8911740  44.9900620  89.1385660  52.3577020
  45.2702910  88.2953560  52.7136440  44.2166350  89.3708770  52.8715770
  36.3095110  91.4278050  49.8168020  36.6121010  91.4345480  48.9087170
  37.0489700  91.0775910  50.3135680  39.5280040  90.3712670  50.8024220
  39.1802040  89.6936660  50.2226670  39.7292810  89.9102180  51.6167610
  49.3681340  98.3762390  52.9680930  50.1300250  98.9459040  53.0740620
  49.3835710  97.8089590  53.7389240  32.8685680  96.9000320  57.1988590
  32.2134520  96.6311960  56.5548290  33.7063630  96.7904800  56.7490570
  45.8176120  91.6941610  51.4207080  46.2361000  91.5072590  50.5803740
  45.5112180  90.8420660  51.7310010  49.3165850  96.6065750  55.1182880
  48.9409450  95.8393680  54.6864170  48.5868970  96.9888450  55.6057810
  32.0823760  94.1099250  53.1413920  31.1787840  94.3729450  52.9665580
  32.5664380  94.3810420  52.3613880  48.5916810  94.8323240  58.4190120
  49.1154290  94.3385890  57.7880290  49.1776230  94.9673600  59.1637690
  34.6250970  93.1664790  51.0508300  35.3342670  92.7448010  50.5655580
  33.9090910  93.2340020  50.4191650  34.2725130  89.2204120  50.0910950
  34.9953260  89.7613060  50.4092170  34.5449650  88.9467540  49.2152490
  48.0816780  94.0896590  54.3582530  48.5775900  93.8567460  55.1431410
  47.8832850  93.2508430  53.9420170  49.5103940  92.7257540  56.8920210
  49.4003220  92.5713580  57.8302480  50.2711530  92.1978480  56.6495620
  50.3994210  90.5565460  50.1326350  51.3243520  90.4246640  49.9244640
  50.3770000  90.6358280  51.0862800  50.4732700  91.3276120  52.7583060
  49.6784200  91.2621240  53.2875970  50.6775980  92.2626760  52.7468410
  46.9052630  89.6573000  59.2081890  47.3460720  89.6018100  58.3603490
  46.6360220  90.5731010  59.2792070  48.7691200  89.2888240  57.2190710
  48.7079600  88.3449460  57.0721730  49.5483230  89.3968330  57.7644170
  33.6971970  89.2597380  53.6846520  34.4551330  89.3726260  53.1110550
  33.2349140  90.0966580  53.6389950  40.2385780  91.3736650  56.6748830
  39.4260290  90.9993540  56.3344710  40.7427420  90.6181730  56.9770020
  44.7410760  88.0379100  57.9131900  45.3440130  88.6099310  58.3880420
  44.0003750  88.6018540  57.6905800  47.8845360  88.4400660  53.1872180
  48.0795990  89.3384110  53.4539610  47.0975230  88.2087740  53.6805130
  36.0697120  89.7861430  52.2248490  36.5989880  88.9991230  52.0956440
  36.7025440  90.4652620  52.4584020  38.2634960  89.5236570  55.2793880
  37.6337700  88.8223880  55.4464010  37.7240100  90.2840700  55.0627040
  43.8964130  96.2366600  38.6561580  43.8158180  95.3221210  38.3853290
  43.4828550  96.7333670  37.9501290  42.0282170  98.0145620  40.5370850
  41.2524270  97.5346060  40.8269420  42.6795100  97.3351270  40.3627010
  36.0448000  98.3265430  41.4146610  35.2132880  98.0714140  41.8143120
  36.6528980  98.3976200  42.1504530  34.4539950  93.2867320  35.1989000
  33.5656650  93.6283290  35.0968880  34.7381140  93.0867640  34.3069830
  32.4172960  95.8872970  41.0828700  32.9889070  95.1195170  41.0832340
  32.4174500  96.1861730  40.1735310  33.6597830  91.2957330  42.8697630
  33.4800670  90.3983080  43.1500390  33.2577910  91.8429200  43.5444580
  42.4996330  93.4973190  40.7709940  42.8761150  92.6245070  40.6583610
  42.4015840  93.8331890  39.8800380  36.6301340  91.8698820  36.2327380
  36.7368090  92.7702550  36.5396140  35.7193700  91.8216790  35.9422030
  46.2820450  90.9923630  37.7038280  47.1030070  90.5020200  37.7463760
  46.3154530  91.5821290  38.4570120  34.2784500  93.7917830  41.4779970
  34.9594610  94.0556200  42.0967370  33.9632550  92.9518700  41.8117980
  38.4709070  94.8385190  40.5652560  38.9787290  95.3366160  41.2057580
  39.0022310  94.0620390  40.3891920  50.5720000  93.0090380  44.2681910
  49.8672170  93.3972090  43.7497020  50.8377920  93.7040670  44.8702840
  36.7545170  89.4783750  44.8315980  36.7563610  89.9956140  44.0261880
  35.9249480  89.0013930  44.8085910  46.5181930  92.9324010  40.4765820
  45.8137500  93.2208900  41.0568930  46.8794090  93.7424120  40.1165380
  36.4360500  91.1893710  42.8386430  36.7777310  92.0335760  42.5440300
  35.4976310  91.3377450  42.9551770  49.5868850  92.3778800  40.8675030
  48.6393760  92.4117780  40.9990460  49.9118840  93.1917750  41.2524390
  40.1188390  88.6775980  39.1631020  40.4263370  88.1222870  38.4466520
  39.1889090  88.8120440  38.9804010  42.5069150  96.7424810  35.8991140
  41.5798430  96.6762190  36.1279610  42.6593970  97.6804940  35.7846380
  42.4938230  93.0141810  32.8958300  41.5541900  93.1755770  32.9810760
  42.8121490  93.7327490  32.3494290  49.0150990  97.6960330  42.8737330
  48.1869620  97.7653420  42.3987460  49.6101470  98.2814640  42.4053160
  46.5366440  98.3045110  36.4026390  45.9178860  97.9664660  35.7552690
  46.5190890  97.6604870  37.1105580  45.9793000  94.4829650  43.8192200
  45.5664180  95.3083360  44.0732190  45.2468950  93.8974690  43.6268560
  38.1125790  97.2689550  38.6810870  37.7082790  96.5566800  38.1856770
  38.1988910  96.9242790  39.5698910  36.8254410  94.0432760  42.4609910
  37.3769000  94.1528100  41.6863160  37.3397920  94.4170360  43.1765140
  44.7131140  97.5431920  33.4099140  45.1524420  96.7054350  33.2636960
  45.4259560  98.1761320  33.4963280  36.4997140  97.5652120  46.0715250
  36.3604910  98.4374920  46.4402650  35.6178500  97.2224930  45.9263190
  48.2948280  88.7974730  31.7240180  47.9820940  88.8901560  32.6239250
  49.0560750  89.3755760  31.6737610  34.8130420  96.1634530  36.1817520
  34.6928020  96.8896620  35.5698790  34.5031310  95.3937440  35.7045430
  49.5049570  93.5346230  47.7014320  48.8893840  94.0425900  47.1729780
  49.1845990  92.6344560  47.6440260  37.2794080  89.5069600  39.5641190
  36.8362230  90.2879140  39.2325710  37.8379070  89.8299490  40.2712130
  41.5663890  92.3738120  45.1676510  41.1043260  92.5821140  45.9796450
  41.1642000  91.5597470  44.8647180  46.5668400  93.5947070  46.2973170
  45.7161990  93.2952820  46.6182240  46.4070190  93.8389080  45.3856990
  43.6618110  95.0948820  48.3971960  43.9871520  94.2612570  48.0574190
  44.4498440  95.6177340  48.5450290  40.3952900  89.1280300  34.4447020
  39.7707080  89.1240170  35.1700330  40.3083020  88.2611260  34.0482990
  39.3169980  90.0516930  41.4230790  39.6142310  90.9579760  41.3422810
  39.8655540  89.5635710  40.8090360  37.0708300  94.6303170  37.2922440
  36.8449220  94.4140340  38.1969060  36.2900830  95.0631630  36.9468410
  44.3006060  94.6366540  35.8913090  43.7014950  95.3602340  35.7076710
  44.8485670  94.5743320  35.1089540  39.5107510  95.5288750  47.9582710
  39.4151110  94.5883480  47.8083110  40.3539490  95.7503820  47.5630780
  42.9070930  93.2730080  37.9216370  43.3000500  93.5902280  37.1085060
  43.2687780  92.3941960  38.0360890  34.6418050  91.9402420  46.1116490
  34.2481440  92.7877630  46.3189270  33.9536450  91.3028790  46.3025130
  41.2163100  92.0237390  49.1813230  40.5261420  91.8309590  49.8159320
  41.9595400  92.3072030  49.7137530  31.9435100  89.8630880  40.1446570
  31.6548150  90.4333740  40.8571550  32.6880860  89.3835330  40.5077800
  32.1305330  93.8051000  31.3549290  32.0480000  94.7481760  31.4964280
  31.7788390  93.6625910  30.4761640  43.4926070  95.8635830  42.0167150
  42.7607190  96.3722640  42.3657250  43.0950410  95.0465810  41.7155930
  39.9303460  92.5390030  40.4219640  39.9339520  92.0979980  39.5724180
  40.8254580  92.8607360  40.5291460  35.7805840  92.4216520  39.3813850
  35.4405890  92.8991750  40.1380900  35.0183160  91.9681640  39.0214950
  39.9923610  93.5402110  33.4126400  40.1136430  93.4988590  34.3612220
  39.6072120  94.4026260  33.2573130  43.9551980  91.3169510  41.4290090
  43.9724720  91.7678160  42.2731940  43.7067560  90.4175150  41.6423530
  39.0045110  95.8503250  32.8109700  38.4362010  95.4021500  32.1845610
  39.7134110  96.2096030  32.2774850  47.3822730  88.7301690  47.2676470
  47.7068500  87.9991350  47.7934450  47.4179240  88.4115330  46.3657460
  40.2311430  96.5991810  42.1685050  40.5981560  96.1250380  42.9146390
  40.0416490  97.4733380  42.5093390  33.0951920  91.3435500  38.2978520
  32.8098840  90.9791170  39.1357140  33.0330780  90.6115960  37.6841660
  38.0210800  95.6400450  44.4869260  37.7167870  96.5192430  44.7119620
  38.9757260  95.7000240  44.5226700  42.7690510  90.2364760  35.0191890
  41.9555120  89.7377930  34.9437200  42.5752460  91.0763010  34.6028240
  45.4838900  94.6084410  33.3154050  46.3718520  94.9201640  33.1405390
  45.4543990  93.7356660  32.9234630  34.0774530  96.4803190  45.6340620
  33.7189470  97.1457040  46.2213960  33.7829090  95.6486740  46.0053240
  37.2787650  96.9387430  48.5180170  36.9787790  97.0844610  47.6207990
  38.0498890  96.3792720  48.4253560  47.7553170  95.9196250  32.7833910
  47.6716890  96.3510470  31.9330350  48.4747360  96.3794600  33.2160730
  48.8327310  98.3763770  45.8603880  48.1075500  98.9692550  45.6633270
  49.3602770  98.3687310  45.0617250  32.5882580  96.4794450  32.2575220
  33.4577430  96.7619250  32.5411140  32.0972900  97.2930320  32.1424030
  39.7517390  97.8667660  36.3783500  40.2080170  98.6772910  36.6043690
  39.4005600  97.5490800  37.2101990  35.6529170  88.2105310  36.8506020
  35.5243800  88.2023210  37.7990940  34.8291190  88.5488400  36.4997030
  32.6523100  89.9696430  46.3112720  31.9381620  90.1693350  46.9165330
  33.0718140  89.1936000  46.6827520  44.1461880  92.4618740  44.0614170
  44.5142700  91.6413950  44.3893740  43.2860080  92.5220630  44.4769820
  47.5123910  91.4175680  34.8701730  46.8837070  91.5221350  34.1559960
  47.0175830  91.6372460  35.6595610  39.4807940  93.6961630  36.2859610
  38.7724090  94.1647970  36.7273220  39.7652420  93.0383640  36.9204800
  41.1063870  95.1158330  44.2852140  41.6049120  95.5904150  44.9503990
  41.2486820  94.1921850  44.4922170  43.5123370  90.4212290  37.7255400
  43.3891150  90.4398420  36.7764910  44.4607930  90.4691230  37.8453800
  37.6842960  92.0046710  33.6610320  38.5333490  92.4416860  33.5950510
  37.3174230  92.3166970  34.4882380  48.3130730  91.3326290  45.1280530
  47.8104330  92.0731690  45.4674340  49.1287390  91.7210290  44.8117320
  46.6052740  96.5759470  38.5741890  45.6642880  96.5909700  38.7489580
  46.9196810  95.7895430  39.0202190  36.5834380  98.2579070  32.1345850
  37.3497650  98.1460430  32.6971280  36.6609070  97.5617040  31.4822620
  35.2781140  95.6904140  32.8178740  35.3584730  94.7431650  32.9296140
  36.1700890  96.0211020  32.9239400  32.8051940  97.5119060  48.0534910
  33.3090960  96.9326340  48.6251140  32.0659360  97.7959290  48.5911280
  34.8375020  95.6548650  48.9484980  34.8780360  95.3562520  49.8570210
  35.6920520  96.0556260  48.7892500  38.6153410  98.2544200  34.1088490
  39.0369830  98.0884070  34.9519880  38.7404250  97.4444430  33.6143630
  36.7780830  94.2340750  46.9159470  36.2477290  93.7431700  46.2882810
  37.4468900  94.6624950  46.3817400  41.1281050  97.2781810  31.3565590
  41.6486710  96.5630830  30.9906740  41.7749450  97.9167680  31.6566100
  45.6758890  98.7010210  46.6800660  46.0899910  98.8555290  47.5291080
  44.7409890  98.8265430  46.8426440  46.1481060  96.0406370  48.6839810
  46.7301830  95.2858690  48.5960290  46.3242830  96.5713810  47.9071290
  37.2653130  91.2003120  46.9956760  37.1710000  90.5823870  46.2707630
  36.6850520  91.9269410  46.7686670  40.0314570  89.7576360  44.0284150
  39.5831870  89.7800620  43.1829700  39.3979770  89.3595380  44.6254450
  42.7738020  96.3846870  46.0334430  42.8934230  95.7888010  46.7729270
  43.6332020  96.4216560  45.6135730  45.1125920  96.9384060  44.6096940
  44.5861140  97.4626680  44.0062080  45.4557260  97.5711450  45.2406670
  37.5112310  94.3277430  31.0546650  37.3101370  93.4644790  31.4159990
  37.3404360  94.2410790  30.1168250  39.5406790  92.9268220  47.2910250
  40.1306480  92.6184070  47.9788070  38.7227030  92.4547970  47.4470150
  44.3600220  92.5434030  47.5243270  43.6715740  91.8815570  47.4593260
  45.0806240  92.0972300  47.9691730  44.9900620  89.1385660  33.5833530
  45.2702910  88.2953560  33.9392950  44.2166350  89.3708770  34.0972280
  36.3095110  91.4278050  31.0424530  36.6121010  91.4345480  30.1343680
  37.0489700  91.0775910  31.5392190  39.5280040  90.3712670  32.0280730
  39.1802040  89.6936660  31.4483180  39.7292810  89.9102180  32.8424120
  49.3681340  98.3762390  34.1937440  50.1300250  98.9459040  34.2997130
  49.3835710  97.8089590  34.9645750  32.8685680  96.9000320  38.4245100
  32.2134520  96.6311960  37.7804800  33.7063630  96.7904800  37.9747080
  45.8176120  91.6941610  32.6463590  46.2361000  91.5072590  31.8060250
  45.5112180  90.8420660  32.9566520  49.3165850  96.6065750  36.3439390
  48.9409450  95.8393680  35.9120680  48.5868970  96.9888450  36.8314320
  33.9061610  97.2852890  42.9648440  34.2734650  97.1980290  43.8444460
  33.3372430  96.5219440  42.8655300  48.7065470  95.7537270  45.9778910
  48.4751560  95.5250020  45.0776860  48.9670020  96.6736820  45.9323800
  33.4577610  94.1961980  46.8706860  32.5633660  94.1628740  47.2100570
  33.9975160  94.3948770  47.6358110  47.1453540  90.9793700  48.7558610
  48.0223720  90.9877100  49.1392610  47.1574380  90.2424540  48.1450960
  32.0823760  94.1099250  34.3670430  31.1787840  94.3729450  34.1922090
  32.5664380  94.3810420  33.5870390  48.5916810  94.8323240  39.6446630
  49.1154290  94.3385890  39.0136800  49.1776230  94.9673600  40.3894200
  48.7706530  94.9163110  43.1666180  47.8209240  94.8826650  43.2811170
  48.9519540  95.8263220  42.9315950  34.6250970  93.1664790  32.2764810
  35.3342670  92.7448010  31.7912090  33.9090910  93.2340020  31.6448160
  34.2725130  89.2204120  31.3167460  34.9953260  89.7613060  31.6348680
  34.5449650  88.9467540  30.4409000  48.0816780  94.0896590  35.5839040
  48.5775900  93.8567460  36.3687920  47.8832850  93.2508430  35.1676680
  33.9617320  88.4710310  41.2190080  34.6093510  87.9207690  40.7785240
  34.3819160  88.7253460  42.0405890  49.5103940  92.7257540  38.1176720
  49.4003220  92.5713580  39.0558990  50.2711530  92.1978480  37.8752130
  47.8569660  88.6651670  44.5759720  48.4941880  89.2785810  44.9418910
  48.0044550  88.7012330  43.6308950  50.3994210  90.5565460  31.3582860
  51.3243520  90.4246640  31.1501150  50.3770000  90.6358280  32.3119310
  50.4732700  91.3276120  33.9839570  49.6784200  91.2621240  34.5132480
  50.6775980  92.2626760  33.9724920  33.7149320  88.6265980  43.9615400
  33.3664140  89.0829800  44.7273580  33.3837020  87.7323110  44.0437830
  41.2274140  89.8177860  47.4834820  41.1663030  90.4099690  48.2330230
  42.1674520  89.7103820  47.3385080  43.8648700  89.4747920  47.1227110
  44.4789110  89.7927210  46.4608190  44.4098260  88.9896510  47.7422970
  34.3869960  88.1542180  47.2366170  34.9352950  87.9730230  46.4732280
  34.4525270  87.3636290  47.7722480  44.6056740  88.0380060  43.4496400
  43.7316580  88.3715170  43.2469330  44.4967490  87.5653240  44.2748270
  45.5128720  90.2450930  44.8338120  45.1842080  89.4302690  44.4539850
  46.4611020  90.2020740  44.7103810  42.3531560  88.9549900  42.3889310
  41.5703350  89.4295400  42.6686070  42.0594490  88.0504730  42.2802490
  46.9052630  89.6573000  40.4338400  47.3460720  89.6018100  39.5860000
  46.6360220  90.5731010  40.5048580  48.7691200  89.2888240  38.4447220
  48.7079600  88.3449460  38.2978240  49.5483230  89.3968330  38.9900680
  33.6971970  89.2597380  34.9103030  34.4551330  89.3726260  34.3367060
  33.2349140  90.0966580  34.8646460  40.2385780  91.3736650  37.9005340
  39.4260290  90.9993540  37.5601220  40.7427420  90.6181730  38.2026530
  44.7410760  88.0379100  39.1388410  45.3440130  88.6099310  39.6136930
  44.0003750  88.6018540  38.9162310  47.8845360  88.4400660  34.4128690
  48.0795990  89.3384110  34.6796120  47.0975230  88.2087740  34.9061640
  36.0697120  89.7861430  33.4505000  36.5989880  88.9991230  33.3212950
  36.7025440  90.4652620  33.6840530  38.2634960  89.5236570  36.5050390
  37.6337700  88.8223880  36.6720520  37.7240100  90.2840700  36.2883550
  38.3890520  88.8020550  48.9402880  38.1074790  89.3054150  48.1763700
  38.7710220  88.0042300  48.5745010  44.9905980  88.2174130  49.5183350
  44.8771430  88.5368740  50.4134870  45.8075720  88.6186640  49.2220630
  43.8964130  96.2366600  19.8818090  43.8158180  95.3221210  19.6109800
  43.4828550  96.7333670  19.1757800  42.0282170  98.0145620  21.7627360
  41.2524270  97.5346060  22.0525930  42.6795100  97.3351270  21.5883520
  36.0448000  98.3265430  22.6403120  35.2132880  98.0714140  23.0399630
  36.6528980  98.3976200  23.3761040  34.4539950  93.2867320  16.4245510
  33.5656650  93.6283290  16.3225390  34.7381140  93.0867640  15.5326340
  32.4172960  95.8872970  22.3085210  32.9889070  95.1195170  22.3088850
  32.4174500  96.1861730  21.3991820  33.6597830  91.2957330  24.0954140
  33.4800670  90.3983080  24.3756900  33.2577910  91.8429200  24.7701090
  42.4996330  93.4973190  21.9966450  42.8761150  92.6245070  21.8840120
  42.4015840  93.8331890  21.1056890  36.6301340  91.8698820  17.4583890
  36.7368090  92.7702550  17.7652650  35.7193700  91.8216790  17.1678540
  46.2820450  90.9923630  18.9294790  47.1030070  90.5020200  18.9720270
  46.3154530  91.5821290  19.6826630  34.2784500  93.7917830  22.7036480
  34.9594610  94.0556200  23.3223880  33.9632550  92.9518700  23.0374490
  38.4709070  94.8385190  21.7909070  38.9787290  95.3366160  22.4314090
  39.0022310  94.0620390  21.6148430  50.5720000  93.0090380  25.4938420
  49.8672170  93.3972090  24.9753530  50.8377920  93.7040670  26.0959350
  36.7545170  89.4783750  26.0572490  36.7563610  89.9956140  25.2518390
  35.9249480  89.0013930  26.0342420  46.5181930  92.9324010  21.7022330
  45.8137500  93.2208900  22.2825440  46.8794090  93.7424120  21.3421890
  36.4360500  91.1893710  24.0642940  36.7777310  92.0335760  23.7696810
  35.4976310  91.3377450  24.1808280  49.5868850  92.3778800  22.0931540
  48.6393760  92.4117780  22.2246970  49.9118840  93.1917750  22.4780900
  40.1188390  88.6775980  20.3887530  40.4263370  88.1222870  19.6723030
  39.1889090  88.8120440  20.2060520  42.5069150  96.7424810  17.1247650
  41.5798430  96.6762190  17.3536120  42.6593970  97.6804940  17.0102890
  42.4938230  93.0141810  14.1214810  41.5541900  93.1755770  14.2067270
  42.8121490  93.7327490  13.5750800  49.0150990  97.6960330  24.0993840
  48.1869620  97.7653420  23.6243970  49.6101470  98.2814640  23.6309670
  46.5366440  98.3045110  17.6282900  45.9178860  97.9664660  16.9809200
  46.5190890  97.6604870  18.3362090  45.9793000  94.4829650  25.0448710
  45.5664180  95.3083360  25.2988700  45.2468950  93.8974690  24.8525070
  38.1125790  97.2689550  19.9067380  37.7082790  96.5566800  19.4113280
  38.1988910  96.9242790  20.7955420  36.8254410  94.0432760  23.6866420
  37.3769000  94.1528100  22.9119670  37.3397920  94.4170360  24.4021650
  44.7131140  97.5431920  14.6355650  45.1524420  96.7054350  14.4893470
  45.4259560  98.1761320  14.7219790  36.4997140  97.5652120  27.2971760
  36.3604910  98.4374920  27.6659160  35.6178500  97.2224930  27.1519700
  48.2948280  88.7974730  12.9496690  47.9820940  88.8901560  13.8495760
  49.0560750  89.3755760  12.8994120  34.8130420  96.1634530  17.4074030
  34.6928020  96.8896620  16.7955300  34.5031310  95.3937440  16.9301940
  49.5049570  93.5346230  28.9270830  48.8893840  94.0425900  28.3986290
  49.1845990  92.6344560  28.8696770  37.2794080  89.5069600  20.7897700
  36.8362230  90.2879140  20.4582220  37.8379070  89.8299490  21.4968640
  41.5663890  92.3738120  26.3933020  41.1043260  92.5821140  27.2052960
  41.1642000  91.5597470  26.0903690  46.5668400  93.5947070  27.5229680
  45.7161990  93.2952820  27.8438750  46.4070190  93.8389080  26.6113500
  43.6618110  95.0948820  29.6228470  43.9871520  94.2612570  29.2830700
  44.4498440  95.6177340  29.7706800  40.3952900  89.1280300  15.6703530
  39.7707080  89.1240170  16.3956840  40.3083020  88.2611260  15.2739500
  39.3169980  90.0516930  22.6487300  39.6142310  90.9579760  22.5679320
  39.8655540  89.5635710  22.0346870  37.0708300  94.6303170  18.5178950
  36.8449220  94.4140340  19.4225570  36.2900830  95.0631630  18.1724920
  44.3006060  94.6366540  17.1169600  43.7014950  95.3602340  16.9333220
  44.8485670  94.5743320  16.3346050  39.5107510  95.5288750  29.1839220
  39.4151110  94.5883480  29.0339620  40.3539490  95.7503820  28.7887290
  42.9070930  93.2730080  19.1472880  43.3000500  93.5902280  18.3341570
  43.2687780  92.3941960  19.2617400  34.6418050  91.9402420  27.3373000
  34.2481440  92.7877630  27.5445780  33.9536450  91.3028790  27.5281640
  41.2163100  92.0237390  30.4069740  40.5261420  91.8309590  31.0415830
  41.9595400  92.3072030  30.9394040  31.9435100  89.8630880  21.3703080
  31.6548150  90.4333740  22.0828060  32.6880860  89.3835330  21.7334310
  32.1305330  93.8051000  12.5805800  32.0480000  94.7481760  12.7220790
  31.7788390  93.6625910  11.7018150  43.4926070  95.8635830  23.2423660
  42.7607190  96.3722640  23.5913760  43.0950410  95.0465810  22.9412440
  39.9303460  92.5390030  21.6476150  39.9339520  92.0979980  20.7980690
  40.8254580  92.8607360  21.7547970  35.7805840  92.4216520  20.6070360
  35.4405890  92.8991750  21.3637410  35.0183160  91.9681640  20.2471460
  39.9923610  93.5402110  14.6382910  40.1136430  93.4988590  15.5868730
  39.6072120  94.4026260  14.4829640  43.9551980  91.3169510  22.6546600
  43.9724720  91.7678160  23.4988450  43.7067560  90.4175150  22.8680040
  39.0045110  95.8503250  14.0366210  38.4362010  95.4021500  13.4102120
  39.7134110  96.2096030  13.5031360  47.3822730  88.7301690  28.4932980
  47.7068500  87.9991350  29.0190960  47.4179240  88.4115330  27.5913970
  40.2311430  96.5991810  23.3941560  40.5981560  96.1250380  24.1402900
  40.0416490  97.4733380  23.7349900  33.0951920  91.3435500  19.5235030
  32.8098840  90.9791170  20.3613650  33.0330780  90.6115960  18.9098170
  38.0210800  95.6400450  25.7125770  37.7167870  96.5192430  25.9376130
  38.9757260  95.7000240  25.7483210  42.7690510  90.2364760  16.2448400
  41.9555120  89.7377930  16.1693710  42.5752460  91.0763010  15.8284750
  45.4838900  94.6084410  14.5410560  46.3718520  94.9201640  14.3661900
  45.4543990  93.7356660  14.1491140  34.0774530  96.4803190  26.8597130
  33.7189470  97.1457040  27.4470470  33.7829090  95.6486740  27.2309750
  37.2787650  96.9387430  29.7436680  36.9787790  97.0844610  28.8464500
  38.0498890  96.3792720  29.6510070  47.7553170  95.9196250  14.0090420
  47.6716890  96.3510470  13.1586860  48.4747360  96.3794600  14.4417240
  48.8327310  98.3763770  27.0860390  48.1075500  98.9692550  26.8889780
  49.3602770  98.3687310  26.2873760  32.5882580  96.4794450  13.4831730
  33.4577430  96.7619250  13.7667650  32.0972900  97.2930320  13.3680540
  39.7517390  97.8667660  17.6040010  40.2080170  98.6772910  17.8300200
  39.4005600  97.5490800  18.4358500  35.6529170  88.2105310  18.0762530
  35.5243800  88.2023210  19.0247450  34.8291190  88.5488400  17.7253540
  32.6523100  89.9696430  27.5369230  31.9381620  90.1693350  28.1421840
  33.0718140  89.1936000  27.9084030  44.1461880  92.4618740  25.2870680
  44.5142700  91.6413950  25.6150250  43.2860080  92.5220630  25.7026330
  47.5123910  91.4175680  16.0958240  46.8837070  91.5221350  15.3816470
  47.0175830  91.6372460  16.8852120  39.4807940  93.6961630  17.5116120
  38.7724090  94.1647970  17.9529730  39.7652420  93.0383640  18.1461310
  41.1063870  95.1158330  25.5108650  41.6049120  95.5904150  26.1760500
  41.2486820  94.1921850  25.7178680  43.5123370  90.4212290  18.9511910
  43.3891150  90.4398420  18.0021420  44.4607930  90.4691230  19.0710310
  37.6842960  92.0046710  14.8866830  38.5333490  92.4416860  14.8207020
  37.3174230  92.3166970  15.7138890  48.3130730  91.3326290  26.3537040
  47.8104330  92.0731690  26.6930850  49.1287390  91.7210290  26.0373830
  46.6052740  96.5759470  19.7998400  45.6642880  96.5909700  19.9746090
  46.9196810  95.7895430  20.2458700  36.5834380  98.2579070  13.3602360
  37.3497650  98.1460430  13.9227790  36.6609070  97.5617040  12.7079130
  35.2781140  95.6904140  14.0435250  35.3584730  94.7431650  14.1552650
  36.1700890  96.0211020  14.1495910  32.8051940  97.5119060  29.2791420
  33.3090960  96.9326340  29.8507650  32.0659360  97.7959290  29.8167790
  34.8375020  95.6548650  30.1741490  34.8780360  95.3562520  31.0826720
  35.6920520  96.0556260  30.0149010  38.6153410  98.2544200  15.3345000
  39.0369830  98.0884070  16.1776390  38.7404250  97.4444430  14.8400140
  36.7780830  94.2340750  28.1415980  36.2477290  93.7431700  27.5139320
  37.4468900  94.6624950  27.6073910  41.1281050  97.2781810  12.5822100
  41.6486710  96.5630830  12.2163250  41.7749450  97.9167680  12.8822610
  45.6758890  98.7010210  27.9057170  46.0899910  98.8555290  28.7547590
  44.7409890  98.8265430  28.0682950  46.1481060  96.0406370  29.9096320
  46.7301830  95.2858690  29.8216800  46.3242830  96.5713810  29.1327800
  37.2653130  91.2003120  28.2213270  37.1710000  90.5823870  27.4964140
  36.6850520  91.9269410  27.9943180  40.0314570  89.7576360  25.2540660
  39.5831870  89.7800620  24.4086210  39.3979770  89.3595380  25.8510960
  42.7738020  96.3846870  27.2590940  42.8934230  95.7888010  27.9985780
  43.6332020  96.4216560  26.8392240  45.1125920  96.9384060  25.8353450
  44.5861140  97.4626680  25.2318590  45.4557260  97.5711450  26.4663180
  37.5112310  94.3277430  12.2803160  37.3101370  93.4644790  12.6416500
  37.3404360  94.2410790  11.3424760  39.5406790  92.9268220  28.5166760
  40.1306480  92.6184070  29.2044580  38.7227030  92.4547970  28.6726660
  44.3600220  92.5434030  28.7499780  43.6715740  91.8815570  28.6849770
  45.0806240  92.0972300  29.1948240  44.9900620  89.1385660  14.8090040
  45.2702910  88.2953560  15.1649460  44.2166350  89.3708770  15.3228790
  36.3095110  91.4278050  12.2681040  36.6121010  91.4345480  11.3600190
  37.0489700  91.0775910  12.7648700  39.5280040  90.3712670  13.2537240
  39.1802040  89.6936660  12.6739690  39.7292810  89.9102180  14.0680630
  49.3681340  98.3762390  15.4193950  50.1300250  98.9459040  15.5253640
  49.3835710  97.8089590  16.1902260  32.8685680  96.9000320  19.6501610
  32.2134520  96.6311960  19.0061310  33.7063630  96.7904800  19.2003590
  45.8176120  91.6941610  13.8720100  46.2361000  91.5072590  13.0316760
  45.5112180  90.8420660  14.1823030  49.3165850  96.6065750  17.5695900
  48.9409450  95.8393680  17.1377190  48.5868970  96.9888450  18.0570830
  33.9061610  97.2852890  24.1904950  34.2734650  97.1980290  25.0700970
  33.3372430  96.5219440  24.0911810  48.7065470  95.7537270  27.2035420
  48.4751560  95.5250020  26.3033370  48.9670020  96.6736820  27.1580310
  33.4577610  94.1961980  28.0963370  32.5633660  94.1628740  28.4357080
  33.9975160  94.3948770  28.8614620  47.1453540  90.9793700  29.9815120
  48.0223720  90.9877100  30.3649120  47.1574380  90.2424540  29.3707470
  32.0823760  94.1099250  15.5926940  31.1787840  94.3729450  15.4178600
  32.5664380  94.3810420  14.8126900  48.5916810  94.8323240  20.8703140
  49.1154290  94.3385890  20.2393310  49.1776230  94.9673600  21.6150710
  48.7706530  94.9163110  24.3922690  47.8209240  94.8826650  24.5067680
  48.9519540  95.8263220  24.1572460  34.6250970  93.1664790  13.5021320
  35.3342670  92.7448010  13.0168600  33.9090910  93.2340020  12.8704670
  34.2725130  89.2204120  12.5423970  34.9953260  89.7613060  12.8605190
  34.5449650  88.9467540  11.6665510  48.0816780  94.0896590  16.8095550
  48.5775900  93.8567460  17.5944430  47.8832850  93.2508430  16.3933190
  33.9617320  88.4710310  22.4446590  34.6093510  87.9207690  22.0041750
  34.3819160  88.7253460  23.2662400  49.5103940  92.7257540  19.3433230
  49.4003220  92.5713580  20.2815500  50.2711530  92.1978480  19.1008640
  47.8569660  88.6651670  25.8016230  48.4941880  89.2785810  26.1675420
  48.0044550  88.7012330  24.8565460  50.3994210  90.5565460  12.5839370
  51.3243520  90.4246640  12.3757660  50.3770000  90.6358280  13.5375820
  50.4732700  91.3276120  15.2096080  49.6784200  91.2621240  15.7388990
  50.6775980  92.2626760  15.1981430  33.7149320  88.6265980  25.1871910
  33.3664140  89.0829800  25.9530090  33.3837020  87.7323110  25.2694340
  41.2274140  89.8177860  28.7091330  41.1663030  90.4099690  29.4586740
  42.1674520  89.7103820  28.5641590  43.8648700  89.4747920  28.3483620
  44.4789110  89.7927210  27.6864700  44.4098260  88.9896510  28.9679480
  34.3869960  88.1542180  28.4622680  34.9352950  87.9730230  27.6988790
  34.4525270  87.3636290  28.9978990  44.6056740  88.0380060  24.6752910
  43.7316580  88.3715170  24.4725840  44.4967490  87.5653240  25.5004780
  45.5128720  90.2450930  26.0594630  45.1842080  89.4302690  25.6796360
  46.4611020  90.2020740  25.9360320  42.3531560  88.9549900  23.6145820
  41.5703350  89.4295400  23.8942580  42.0594490  88.0504730  23.5059000
  46.9052630  89.6573000  21.6594910  47.3460720  89.6018100  20.8116510
  46.6360220  90.5731010  21.7305090  48.7691200  89.2888240  19.6703730
  48.7079600  88.3449460  19.5234750  49.5483230  89.3968330  20.2157190
  33.6971970  89.2597380  16.1359540  34.4551330  89.3726260  15.5623570
  33.2349140  90.0966580  16.0902970  40.2385780  91.3736650  19.1261850
  39.4260290  90.9993540  18.7857730  40.7427420  90.6181730  19.4283040
  44.7410760  88.0379100  20.3644920  45.3440130  88.6099310  20.8393440
  44.0003750  88.6018540  20.1418820  47.8845360  88.4400660  15.6385200
  48.0795990  89.3384110  15.9052630  47.0975230  88.2087740  16.1318150
  36.0697120  89.7861430  14.6761510  36.5989880  88.9991230  14.5469460
  36.7025440  90.4652620  14.9097040  38.2634960  89.5236570  17.7306900
  37.6337700  88.8223880  17.8977030  37.7240100  90.2840700  17.5140060
  38.3890520  88.8020550  30.1659390  38.1074790  89.3054150  29.4020210
  38.7710220  88.0042300  29.8001520  44.9905980  88.2174130  30.7439860
  44.8771430  88.5368740  31.6391380  45.8075720  88.6186640  30.4477140
  42.0282170  98.0145620   2.9883870  41.2524270  97.5346060   3.2782440
  42.6795100  97.3351270   2.8140030  36.0448000  98.3265430   3.8659630
  35.2132880  98.0714140   4.2656140  36.6528980  98.3976200   4.6017550
  32.4172960  95.8872970   3.5341720  32.9889070  95.1195170   3.5345360
  32.4174500  96.1861730   2.6248330  33.6597830  91.2957330   5.3210650
  33.4800670  90.3983080   5.6013410  33.2577910  91.8429200   5.9957600
  42.4996330  93.4973190   3.2222960  42.8761150  92.6245070   3.1096630
  42.4015840  93.8331890   2.3313400  34.2784500  93.7917830   3.9292990
  34.9594610  94.0556200   4.5480390  33.9632550  92.9518700   4.2631000
  38.4709070  94.8385190   3.0165580  38.9787290  95.3366160   3.6570600
  39.0022310  94.0620390   2.8404940  50.5720000  93.0090380   6.7194930
  49.8672170  93.3972090   6.2010040  50.8377920  93.7040670   7.3215860
  36.7545170  89.4783750   7.2829000  36.7563610  89.9956140   6.4774900
  35.9249480  89.0013930   7.2598930  46.5181930  92.9324010   2.9278840
  45.8137500  93.2208900   3.5081950  46.8794090  93.7424120   2.5678400
  36.4360500  91.1893710   5.2899450  36.7777310  92.0335760   4.9953320
  35.4976310  91.3377450   5.4064790  49.5868850  92.3778800   3.3188050
  48.6393760  92.4117780   3.4503480  49.9118840  93.1917750   3.7037410
  49.0150990  97.6960330   5.3250350  48.1869620  97.7653420   4.8500480
  49.6101470  98.2814640   4.8566180  45.9793000  94.4829650   6.2705220
  45.5664180  95.3083360   6.5245210  45.2468950  93.8974690   6.0781580
  36.8254410  94.0432760   4.9122930  37.3769000  94.1528100   4.1376180
  37.3397920  94.4170360   5.6278160  36.4997140  97.5652120   8.5228270
  36.3604910  98.4374920   8.8915670  35.6178500  97.2224930   8.3776210
  49.5049570  93.5346230  10.1527340  48.8893840  94.0425900   9.6242800
  49.1845990  92.6344560  10.0953280  37.2794080  89.5069600   2.0154210
  36.8362230  90.2879140   1.6838730  37.8379070  89.8299490   2.7225150
  41.5663890  92.3738120   7.6189530  41.1043260  92.5821140   8.4309470
  41.1642000  91.5597470   7.3160200  46.5668400  93.5947070   8.7486190
  45.7161990  93.2952820   9.0695260  46.4070190  93.8389080   7.8370010
  43.6618110  95.0948820  10.8484980  43.9871520  94.2612570  10.5087210
  44.4498440  95.6177340  10.9963310  39.3169980  90.0516930   3.8743810
  39.6142310  90.9579760   3.7935830  39.8655540  89.5635710   3.2603380
  39.5107510  95.5288750  10.4095730  39.4151110  94.5883480  10.2596130
  40.3539490  95.7503820  10.0143800  34.6418050  91.9402420   8.5629510
  34.2481440  92.7877630   8.7702290  33.9536450  91.3028790   8.7538150
  41.2163100  92.0237390  11.6326250  40.5261420  91.8309590  12.2672340
  41.9595400  92.3072030  12.1650550  31.9435100  89.8630880   2.5959590
  31.6548150  90.4333740   3.3084570  32.6880860  89.3835330   2.9590820
  43.4926070  95.8635830   4.4680170  42.7607190  96.3722640   4.8170270
  43.0950410  95.0465810   4.1668950  39.9303460  92.5390030   2.8732660
  39.9339520  92.0979980   2.0237200  40.8254580  92.8607360   2.9804480
  35.7805840  92.4216520   1.8326870  35.4405890  92.8991750   2.5893920
  35.0183160  91.9681640   1.4727970  43.9551980  91.3169510   3.8803110
  43.9724720  91.7678160   4.7244960  43.7067560  90.4175150   4.0936550
  47.3822730  88.7301690   9.7189490  47.7068500  87.9991350  10.2447470
  47.4179240  88.4115330   8.8170480  40.2311430  96.5991810   4.6198070
  40.5981560  96.1250380   5.3659410  40.0416490  97.4733380   4.9606410
  38.0210800  95.6400450   6.9382280  37.7167870  96.5192430   7.1632640
  38.9757260  95.7000240   6.9739720  34.0774530  96.4803190   8.0853640
  33.7189470  97.1457040   8.6726980  33.7829090  95.6486740   8.4566260
  37.2787650  96.9387430  10.9693190  36.9787790  97.0844610  10.0721010
  38.0498890  96.3792720  10.8766580  48.8327310  98.3763770   8.3116900
  48.1075500  98.9692550   8.1146290  49.3602770  98.3687310   7.5130270
  32.6523100  89.9696430   8.7625740  31.9381620  90.1693350   9.3678350
  33.0718140  89.1936000   9.1340540  44.1461880  92.4618740   6.5127190
  44.5142700  91.6413950   6.8406760  43.2860080  92.5220630   6.9282840
  41.1063870  95.1158330   6.7365160  41.6049120  95.5904150   7.4017010
  41.2486820  94.1921850   6.9435190  48.3130730  91.3326290   7.5793550
  47.8104330  92.0731690   7.9187360  49.1287390  91.7210290   7.2630340
  32.8051940  97.5119060  10.5047930  33.3090960  96.9326340  11.0764160
  32.0659360  97.7959290  11.0424300  34.8375020  95.6548650  11.3998000
  34.8780360  95.3562520  12.3083230  35.6920520  96.0556260  11.2405520
  36.7780830  94.2340750   9.3672490  36.2477290  93.7431700   8.7395830
  37.4468900  94.6624950   8.8330420  45.6758890  98.7010210   9.1313680
  46.0899910  98.8555290   9.9804100  44.7409890  98.8265430   9.2939460
  46.1481060  96.0406370  11.1352830  46.7301830  95.2858690  11.0473310
  46.3242830  96.5713810  10.3584310  37.2653130  91.2003120   9.4469780
  37.1710000  90.5823870   8.7220650  36.6850520  91.9269410   9.2199690
  40.0314570  89.7576360   6.4797170  39.5831870  89.7800620   5.6342720
  39.3979770  89.3595380   7.0767470  42.7738020  96.3846870   8.4847450
  42.8934230  95.7888010   9.2242290  43.6332020  96.4216560   8.0648750
  45.1125920  96.9384060   7.0609960  44.5861140  97.4626680   6.4575100
  45.4557260  97.5711450   7.6919690  39.5406790  92.9268220   9.7423270
  40.1306480  92.6184070  10.4301090  38.7227030  92.4547970   9.8983170
  44.3600220  92.5434030   9.9756290  43.6715740  91.8815570   9.9106280
  45.0806240  92.0972300  10.4204750  33.9061610  97.2852890   5.4161460
  34.2734650  97.1980290   6.2957480  33.3372430  96.5219440   5.3168320
  48.7065470  95.7537270   8.4291930  48.4751560  95.5250020   7.5289880
  48.9670020  96.6736820   8.3836820  33.4577610  94.1961980   9.3219880
  32.5633660  94.1628740   9.6613590  33.9975160  94.3948770  10.0871130
  47.1453540  90.9793700  11.2071630  48.0223720  90.9877100  11.5905630
  47.1574380  90.2424540  10.5963980  48.5916810  94.8323240   2.0959650
  49.1154290  94.3385890   1.4649820  49.1776230  94.9673600   2.8407220
  48.7706530  94.9163110   5.6179200  47.8209240  94.8826650   5.7324190
  48.9519540  95.8263220   5.3828970  33.9617320  88.4710310   3.6703100
  34.6093510  87.9207690   3.2298260  34.3819160  88.7253460   4.4918910
  47.8569660  88.6651670   7.0272740  48.4941880  89.2785810   7.3931930
  48.0044550  88.7012330   6.0821970  33.7149320  88.6265980   6.4128420
  33.3664140  89.0829800   7.1786600  33.3837020  87.7323110   6.4950850
  41.2274140  89.8177860   9.9347840  41.1663030  90.4099690  10.6843250
  42.1674520  89.7103820   9.7898100  43.8648700  89.4747920   9.5740130
  44.4789110  89.7927210   8.9121210  44.4098260  88.9896510  10.1935990
  34.3869960  88.1542180   9.6879190  34.9352950  87.9730230   8.9245300
  34.4525270  87.3636290  10.2235500  44.6056740  88.0380060   5.9009420
  43.7316580  88.3715170   5.6982350  44.4967490  87.5653240   6.7261290
  45.5128720  90.2450930   7.2851140  45.1842080  89.4302690   6.9052870
  46.4611020  90.2020740   7.1616830  42.3531560  88.9549900   4.8402330
  41.5703350  89.4295400   5.1199090  42.0594490  88.0504730   4.7315510
  46.9052630  89.6573000   2.8851420  47.3460720  89.6018100   2.0373020
  46.6360220  90.5731010   2.9561600  38.3890520  88.8020550  11.3915900
  38.1074790  89.3054150  10.6276720  38.7710220  88.0042300  11.0258030
  44.9905980  88.2174130  11.9696370  44.8771430  88.5368740  12.8647890
  45.8075720  88.6186640  11.6733650  43.8964130  77.4623110  57.4305070
  43.8158180  76.5477720  57.1596780  43.4828550  77.9590180  56.7244780
  42.0282170  79.2402130  59.3114340  41.2524270  78.7602570  59.6012910
  42.6795100  78.5607780  59.1370500  46.0489600  83.6462320  58.0913470
  45.5871130  82.8749560  58.4200640  46.8615150  83.6728390  58.5965920
  34.4539950  74.5123830  53.9732490  33.5656650  74.8539800  53.8712370
  34.7381140  74.3124150  53.0813320  32.4172960  77.1129480  59.8572190
  32.9889070  76.3451680  59.8575830  32.4174500  77.4118240  58.9478800
  42.2752910  85.9320330  57.7117460  41.6564350  86.3877830  57.1411900
  43.1304690  86.0871790  57.3107160  41.4691160  81.9159320  59.3184500
  41.3999440  80.9749260  59.1573630  42.2311020  82.0060730  59.8907070
  42.4996330  74.7229700  59.5453430  42.8761150  73.8501580  59.4327100
  42.4015840  75.0588400  58.6543870  36.6301340  73.0955330  55.0070870
  36.7368090  73.9959060  55.3139630  35.7193700  73.0473300  54.7165520
  46.2820450  72.2180140  56.4781770  47.1030070  71.7276710  56.5207250
  46.3154530  72.8077800  57.2313610  38.4709070  76.0641700  59.3396050
  38.9787290  76.5622670  59.9801070  39.0022310  75.2876900  59.1635410
  43.1416260  80.8159570  55.1049370  42.5233530  81.2809020  54.5412090
  43.6539510  81.5087050  55.5218880  46.5181930  74.1580520  59.2509310
  45.8137500  74.4465410  59.8312420  46.8794090  74.9680630  58.8908870
  32.5099460  81.5016100  52.4789000  32.1327440  81.9903200  51.7473900
  32.7672530  82.1741380  53.1095530  49.5868850  73.6035310  59.6418520
  48.6393760  73.6374290  59.7733950  49.9118840  74.4174260  60.0267880
  40.1188390  69.9032490  57.9374510  40.4263370  69.3479380  57.2210010
  39.1889090  70.0376950  57.7547500  45.6703450  85.6199780  60.2281970
  45.6830610  85.2162070  59.3604230  45.1178670  86.3947070  60.1243400
  46.9648870  82.3416000  55.3172140  46.8545200  81.3990330  55.4421560
  46.9617120  82.7031640  56.2034900  42.5069150  77.9681320  54.6734630
  41.5798430  77.9018700  54.9023100  42.6593970  78.9061450  54.5589870
  42.4938230  74.2398320  51.6701790  41.5541900  74.4012280  51.7554250
  42.8121490  74.9584000  51.1237780  46.5366440  79.5301620  55.1769880
  45.9178860  79.1921170  54.5296180  46.5190890  78.8861380  55.8849070
  38.1125790  78.4946060  57.4554360  37.7082790  77.7823310  56.9600260
  38.1988910  78.1499300  58.3442400  38.5807490  82.1813620  59.6193570
  38.2835780  81.5759090  58.9401350  39.5307310  82.2190930  59.5082930
  44.7131140  78.7688430  52.1842630  45.1524420  77.9310860  52.0380450
  45.4259560  79.4017830  52.2706770  42.8226520  83.7084500  56.1523870
  43.2622430  84.4508830  55.7379260  42.7613410  83.9511070  57.0762830
  48.2948280  70.0231240  50.4983670  47.9820940  70.1158070  51.3982740
  49.0560750  70.6012270  50.4481100  34.8130420  77.3891040  54.9561010
  34.6928020  78.1153130  54.3442280  34.5031310  76.6193950  54.4788920
  33.6963420  82.2606370  57.1735830  33.2891500  82.4020960  56.3189430
  34.5876430  81.9766530  56.9707040  45.4896700  86.6953620  53.5086880
  45.3297840  86.4056560  54.4068710  45.3243410  85.9193750  52.9732110
  37.9685080  86.4752150  55.2858500  37.7927560  85.5587690  55.0726300
  37.1140820  86.8339440  55.5256300  45.1922830  84.2041180  52.0684880
  44.4987990  84.2018470  51.4087160  45.9345690  83.7800500  51.6379050
  44.7572760  85.8303890  56.1433370  45.2129710  85.0493270  56.4571990
  45.0965280  86.5410710  56.6874550  37.2794080  70.7326110  58.3384680
  36.8362230  71.5135650  58.0069200  37.8379070  71.0556000  59.0455620
  40.3952900  70.3536810  53.2190510  39.7707080  70.3496680  53.9443820
  40.3083020  69.4867770  52.8226480  39.3169980  71.2773440  60.1974280
  39.6142310  72.1836270  60.1166300  39.8655540  70.7892220  59.5833850
  37.0708300  75.8559680  56.0665930  36.8449220  75.6396850  56.9712550
  36.2900830  76.2888140  55.7211900  44.3006060  75.8623050  54.6656580
  43.7014950  76.5858850  54.4820200  44.8485670  75.7999830  53.8833030
  42.9070930  74.4986590  56.6959860  43.3000500  74.8158790  55.8828550
  43.2687780  73.6198470  56.8104380  31.9435100  71.0887390  58.9190060
  31.6548150  71.6590250  59.6315040  32.6880860  70.6091840  59.2821290
  32.1305330  75.0307510  50.1292780  32.0480000  75.9738270  50.2707770
  31.7788390  74.8882420  49.2505130  39.9303460  73.7646540  59.1963130
  39.9339520  73.3236490  58.3467670  40.8254580  74.0863870  59.3034950
  35.7805840  73.6473030  58.1557340  35.4405890  74.1248260  58.9124390
  35.0183160  73.1938150  57.7958440  39.9923610  74.7658620  52.1869890
  40.1136430  74.7245100  53.1355710  39.6072120  75.6282770  52.0316620
  39.0045110  77.0759760  51.5853190  38.4362010  76.6278010  50.9589100
  39.7134110  77.4352540  51.0518340  33.0951920  72.5692010  57.0722010
  32.8098840  72.2047680  57.9100630  33.0330780  71.8372470  56.4585150
  36.5492590  81.0717950  53.8579600  35.7754850  80.5315570  53.6978320
  37.2787220  80.5524560  53.5197360  47.3080570  80.0683310  59.6505990
  48.0279690  80.5638600  59.2602100  47.1062390  79.3901200  59.0059860
  42.7690510  71.4621270  53.7935380  41.9555120  70.9634440  53.7180690
  42.5752460  72.3019520  53.3771730  45.4838900  75.8340920  52.0897540
  46.3718520  76.1458150  51.9148880  45.4543990  74.9613170  51.6978120
  36.5929990  80.7398330  57.4958410  37.1108660  79.9366590  57.4415300
  36.1414010  80.6777470  58.3375240  41.4799490  82.0064610  52.7685710
  41.8215190  82.7506840  52.2729030  40.6512200  82.3195730  53.1310540
  47.7553170  77.1452760  51.5577400  47.6716890  77.5766980  50.7073840
  48.4747360  77.6051110  51.9904220  48.7840420  83.9995020  54.2859530
  48.1416580  83.3450640  54.5603250  48.3971080  84.4050110  53.5100200
  44.3626900  81.3280450  58.1331220  44.7150720  80.7308580  57.4732590
  43.4789230  81.0024680  58.3039470  40.4490180  82.0878140  55.5401630
  41.1361310  82.6347350  55.9209220  39.6622600  82.6318870  55.5751240
  32.5882580  77.7050960  51.0318710  33.4577430  77.9875760  51.3154630
  32.0972900  78.5186830  50.9167520  39.7517390  79.0924170  55.1526990
  40.2080170  79.9029420  55.3787180  39.4005600  78.7747310  55.9845480
  35.6529170  69.4361820  55.6249510  35.5243800  69.4279720  56.5734430
  34.8291190  69.7744910  55.2740520  47.1737800  82.8911480  50.8235880
  46.9475380  82.1741920  51.4160520  46.7834000  82.6423920  49.9857630
  32.9553830  86.9178340  51.5980340  33.3151470  87.5167680  50.9437610
  32.8146170  87.4638230  52.3715370  46.7554050  80.8083420  52.4850040
  46.4675750  81.2696110  53.2727920  47.5506220  80.3481190  52.7534260
  38.9722450  84.3009540  52.4154010  38.9632550  85.0339230  51.7998520
  38.0520810  84.0541120  52.5080970  34.5729090  79.5224430  53.1600770
  33.9657040  80.2623330  53.1696070  35.0478440  79.6123790  52.3338970
  47.5123910  72.6432190  53.6445220  46.8837070  72.7477860  52.9303450
  47.0175830  72.8628970  54.4339100  41.9582050  84.3637780  51.0779200
  42.0594030  84.1601770  50.1481180  41.0583790  84.1096060  51.2826980
  39.4807940  74.9218140  55.0603100  38.7724090  75.3904480  55.5016710
  39.7652420  74.2640150  55.6948290  43.5123370  71.6468800  56.4998890
  43.3891150  71.6654930  55.5508400  44.4607930  71.6947740  56.6197290
  40.6000160  86.8824100  55.7726870  40.8541660  86.8445490  54.8506240
  39.6512640  86.7557430  55.7655120  37.6842960  73.2303220  52.4353810
  38.5333490  73.6673370  52.3694000  37.3174230  73.5423480  53.2625870
  46.6052740  77.8015980  57.3485380  45.6642880  77.8166210  57.5233070
  46.9196810  77.0151940  57.7945680  36.5834380  79.4835580  50.9089340
  37.3497650  79.3716940  51.4714770  36.6609070  78.7873550  50.2566110
  35.2781140  76.9160650  51.5922230  35.3584730  75.9688160  51.7039630
  36.1700890  77.2467530  51.6982890  48.6078320  84.9724830  59.0239640
  48.7325740  85.7956000  59.4963450  49.4743880  84.7615560  58.6763790
  36.0795850  87.0656040  58.6956770  36.8158330  86.5171500  58.9665340
  36.4636770  87.9312050  58.5562760  32.9641330  83.1329610  54.5698280
  32.0381110  83.3750750  54.5603690  33.4297760  83.9603870  54.4483030
  39.1898160  86.2386350  50.5182340  39.9826770  86.5275180  50.0664130
  38.6702510  85.8078520  49.8394820  48.2428330  85.4656480  51.9419080
  47.9569840  85.0521620  51.1273260  48.0447880  86.3944190  51.8219600
  39.7075560  81.4589760  50.3824690  39.6026200  80.8442110  51.1086070
  39.5399780  80.9355650  49.5987700  42.9478290  80.5209790  50.9866680
  42.3988390  80.9679090  51.6309420  43.5697550  80.0159040  51.5104350
  38.6153410  79.4800710  52.8831980  39.0369830  79.3140580  53.7263370
  38.7404250  78.6700940  52.3887120  41.1281050  78.5038320  50.1309080
  41.6486710  77.7887340  49.7650230  41.7749450  79.1424190  50.4309590
  37.5112310  75.5533940  49.8290140  37.3101370  74.6901300  50.1903480
  37.3404360  75.4667300  48.8911740  44.9900620  70.3642170  52.3577020
  45.2702910  69.5210070  52.7136440  44.2166350  70.5965280  52.8715770
  36.3095110  72.6534560  49.8168020  36.6121010  72.6601990  48.9087170
  37.0489700  72.3032420  50.3135680  39.5280040  71.5969180  50.8024220
  39.1802040  70.9193170  50.2226670  39.7292810  71.1358690  51.6167610
  41.6929080  86.5849930  52.4210820  42.5879870  86.9234900  52.4429580
  41.7246710  85.8629340  51.7935100  35.3325240  81.9576980  50.6497820
  35.7700110  82.5006650  51.3055400  35.8172970  81.1323930  50.6594160
  32.5471040  84.7466010  58.1018080  32.8774050  83.8787070  57.8696720
  32.9762040  84.9524530  58.9323040  37.1432960  83.0775020  55.7620050
  36.8428500  82.9539990  56.6623960  37.0370450  82.2183610  55.3535780
  49.9124880  82.8571420  50.4646730  49.0817840  82.9248070  50.9353960
  50.0896710  83.7475540  50.1613590  49.3681340  79.6018900  52.9680930
  50.1300250  80.1715550  53.0740620  49.3835710  79.0346100  53.7389240
  32.8685680  78.1256830  57.1988590  32.2134520  77.8568470  56.5548290
  33.7063630  78.0161310  56.7490570  50.3741310  80.4569000  57.8122860
  50.7450140  79.6736320  57.4058830  51.0143240  81.1458100  57.6340160
  49.4200510  79.8953270  50.1253450  49.6949350  80.8032150  49.9972670
  49.2311250  79.8315800  51.0615440  45.8176120  72.9198120  51.4207080
  46.2361000  72.7329100  50.5803740  45.5112180  72.0677170  51.7310010
  49.3165850  77.8322260  55.1182880  48.9409450  77.0650190  54.6864170
  48.5868970  78.2144960  55.6057810  32.0823760  75.3355760  53.1413920
  31.1787840  75.5985960  52.9665580  32.5664380  75.6066930  52.3613880
  48.5916810  76.0579750  58.4190120  49.1154290  75.5642400  57.7880290
  49.1776230  76.1930110  59.1637690  34.6250970  74.3921300  51.0508300
  35.3342670  73.9704520  50.5655580  33.9090910  74.4596530  50.4191650
  34.2725130  70.4460630  50.0910950  34.9953260  70.9869570  50.4092170
  34.5449650  70.1724050  49.2152490  48.0816780  75.3153100  54.3582530
  48.5775900  75.0823970  55.1431410  47.8832850  74.4764940  53.9420170
  49.5103940  73.9514050  56.8920210  49.4003220  73.7970090  57.8302480
  50.2711530  73.4234990  56.6495620  50.3994210  71.7821970  50.1326350
  51.3243520  71.6503150  49.9244640  50.3770000  71.8614790  51.0862800
  50.4732700  72.5532630  52.7583060  49.6784200  72.4877750  53.2875970
  50.6775980  73.4883270  52.7468410  47.4151120  86.5924180  56.7521450
  48.0110190  86.2708750  56.0755870  47.6729270  86.1196000  57.5434720
  38.3959050  85.5507720  59.7567310  38.9124070  84.9395080  59.2315570
  39.0456430  86.0536500  60.2478320  46.9052630  70.8829510  59.2081890
  47.3460720  70.8274610  58.3603490  46.6360220  71.7987520  59.2792070
  48.7691200  70.5144750  57.2190710  48.7079600  69.5705970  57.0721730
  49.5483230  70.6224840  57.7644170  33.0743950  86.6537110  56.1814660
  32.9065990  86.0207790  56.8796550  32.2078460  86.8596510  55.8308850
  33.6971970  70.4853890  53.6846520  34.4551330  70.5982770  53.1110550
  33.2349140  71.3223090  53.6389950  40.2385780  72.5993160  56.6748830
  39.4260290  72.2250050  56.3344710  40.7427420  71.8438240  56.9770020
  44.7410760  69.2635610  57.9131900  45.3440130  69.8355820  58.3880420
  44.0003750  69.8275050  57.6905800  47.8845360  69.6657170  53.1872180
  48.0795990  70.5640620  53.4539610  47.0975230  69.4344250  53.6805130
  34.6806650  85.3470340  53.6264800  34.1554270  85.7278370  52.9226760
  34.6051230  85.9721110  54.3474510  36.0697120  71.0117940  52.2248490
  36.5989880  70.2247740  52.0956440  36.7025440  71.6909130  52.4584020
  38.2634960  70.7493080  55.2793880  37.6337700  70.0480390  55.4464010
  37.7240100  71.5097210  55.0627040  49.4371970  86.9057880  54.9478740
  49.6124160  86.2195620  54.3039660  48.7393540  87.4304930  54.5555410
  37.2799620  87.2952720  52.5014050  38.0118440  87.0112000  51.9537940
  37.5393290  87.0566000  53.3913430  36.4414410  83.4117450  52.5060380
  35.8123290  83.8802550  53.0546210  36.5562240  82.5666670  52.9406570
  43.8964130  77.4623110  38.6561580  43.8158180  76.5477720  38.3853290
  43.4828550  77.9590180  37.9501290  42.0282170  79.2402130  40.5370850
  41.2524270  78.7602570  40.8269420  42.6795100  78.5607780  40.3627010
  36.0448000  79.5521940  41.4146610  35.2132880  79.2970650  41.8143120
  36.6528980  79.6232710  42.1504530  46.0489600  83.6462320  39.3169980
  45.5871130  82.8749560  39.6457150  46.8615150  83.6728390  39.8222430
  36.0249260  83.5862030  41.6104630  36.3277300  82.6959770  41.4314850
  36.7692850  84.1432250  41.3826880  34.4539950  74.5123830  35.1989000
  33.5656650  74.8539800  35.0968880  34.7381140  74.3124150  34.3069830
  32.4172960  77.1129480  41.0828700  32.9889070  76.3451680  41.0832340
  32.4174500  77.4118240  40.1735310  42.2752910  85.9320330  38.9373970
  41.6564350  86.3877830  38.3668410  43.1304690  86.0871790  38.5363670
  41.4691160  81.9159320  40.5441010  41.3999440  80.9749260  40.3830140
  42.2311020  82.0060730  41.1163580  42.4996330  74.7229700  40.7709940
  42.8761150  73.8501580  40.6583610  42.4015840  75.0588400  39.8800380
  36.6301340  73.0955330  36.2327380  36.7368090  73.9959060  36.5396140
  35.7193700  73.0473300  35.9422030  46.2820450  72.2180140  37.7038280
  47.1030070  71.7276710  37.7463760  46.3154530  72.8077800  38.4570120
  34.2784500  75.0174340  41.4779970  34.9594610  75.2812710  42.0967370
  33.9632550  74.1775210  41.8117980  38.4709070  76.0641700  40.5652560
  38.9787290  76.5622670  41.2057580  39.0022310  75.2876900  40.3891920
  43.1416260  80.8159570  36.3305880  42.5233530  81.2809020  35.7668600
  43.6539510  81.5087050  36.7475390  38.0048020  80.3435440  43.0089480
  37.6717400  80.9704360  43.6510550  38.1814700  80.8697320  42.2291150
  37.2167120  82.3116240  44.8238660  37.8341120  82.9867320  44.5423110
  36.3560240  82.7204220  44.7326160  32.5099460  81.5016100  33.7045510
  32.1327440  81.9903200  32.9730410  32.7672530  82.1741380  34.3352040
  48.1344710  83.7755650  42.7393300  47.4508230  84.4454760  42.7309970
  48.6739000  83.9736300  41.9738160  45.6703450  85.6199780  41.4538480
  45.6830610  85.2162070  40.5860740  45.1178670  86.3947070  41.3499910
  46.9648870  82.3416000  36.5428650  46.8545200  81.3990330  36.6678070
  46.9617120  82.7031640  37.4291410  42.5069150  77.9681320  35.8991140
  41.5798430  77.9018700  36.1279610  42.6593970  78.9061450  35.7846380
  42.4938230  74.2398320  32.8958300  41.5541900  74.4012280  32.9810760
  42.8121490  74.9584000  32.3494290  46.5366440  79.5301620  36.4026390
  45.9178860  79.1921170  35.7552690  46.5190890  78.8861380  37.1105580
  38.1125790  78.4946060  38.6810870  37.7082790  77.7823310  38.1856770
  38.1988910  78.1499300  39.5698910  38.5807490  82.1813620  40.8450080
  38.2835780  81.5759090  40.1657860  39.5307310  82.2190930  40.7339440
  36.8254410  75.2689270  42.4609910  37.3769000  75.3784610  41.6863160
  37.3397920  75.6426870  43.1765140  46.6693100  85.7545490  44.5073180
  46.1923660  86.5617680  44.3145790  45.9854890  85.1023820  44.6599390
  37.6725920  81.9195310  47.4957880  36.7754450  82.1435280  47.7431280
  37.6978790  82.0430250  46.5469280  44.7131140  78.7688430  33.4099140
  45.1524420  77.9310860  33.2636960  45.4259560  79.4017830  33.4963280
  36.4997140  78.7908630  46.0715250  36.3604910  79.6631430  46.4402650
  35.6178500  78.4481440  45.9263190  42.8226520  83.7084500  37.3780380
  43.2622430  84.4508830  36.9635770  42.7613410  83.9511070  38.3019340
  38.2977490  84.7330330  48.2800400  38.2692920  85.1373280  47.4128830
  38.1342460  83.8040690  48.1172000  48.2948280  70.0231240  31.7240180
  47.9820940  70.1158070  32.6239250  49.0560750  70.6012270  31.6737610
  34.8130420  77.3891040  36.1817520  34.6928020  78.1153130  35.5698790
  34.5031310  76.6193950  35.7045430  50.2492310  85.5157430  49.5764570
  50.7252030  85.9940320  50.2553650  50.8699470  85.4474920  48.8510070
  32.4515790  80.5606180  41.9886160  32.5296210  80.6954950  41.0441880
  33.0657470  79.8522070  42.1814280  33.6963420  82.2606370  38.3992340
  33.2891500  82.4020960  37.5445940  34.5876430  81.9766530  38.1963550
  43.5142300  86.4098280  45.3059390  44.0286970  86.3206290  46.1081820
  42.6711380  86.7557980  45.5987300  45.4896700  86.6953620  34.7343390
  45.3297840  86.4056560  35.6325220  45.3243410  85.9193750  34.1988620
  37.9685080  86.4752150  36.5115010  37.7927560  85.5587690  36.2982810
  37.1140820  86.8339440  36.7512810  45.1922830  84.2041180  33.2941390
  44.4987990  84.2018470  32.6343670  45.9345690  83.7800500  32.8635560
  44.7572760  85.8303890  37.3689880  45.2129710  85.0493270  37.6828500
  45.0965280  86.5410710  37.9131060  49.5049570  74.7602740  47.7014320
  48.8893840  75.2682410  47.1729780  49.1845990  73.8601070  47.6440260
  32.5075310  81.6020350  44.5280620  32.6706350  81.1325710  43.7099990
  32.9727760  81.0943910  45.1929460  37.2794080  70.7326110  39.5641190
  36.8362230  71.5135650  39.2325710  37.8379070  71.0556000  40.2712130
  43.6618110  76.3205330  48.3971960  43.9871520  75.4869080  48.0574190
  44.4498440  76.8433850  48.5450290  39.3169980  71.2773440  41.4230790
  39.6142310  72.1836270  41.3422810  39.8655540  70.7892220  40.8090360
  37.0708300  75.8559680  37.2922440  36.8449220  75.6396850  38.1969060
  36.2900830  76.2888140  36.9468410  44.3006060  75.8623050  35.8913090
  43.7014950  76.5858850  35.7076710  44.8485670  75.7999830  35.1089540
  39.5107510  76.7545260  47.9582710  39.4151110  75.8139990  47.8083110
  40.3539490  76.9760330  47.5630780  42.9070930  74.4986590  37.9216370
  43.3000500  74.8158790  37.1085060  43.2687780  73.6198470  38.0360890
  41.2163100  73.2493900  49.1813230  40.5261420  73.0566100  49.8159320
  41.9595400  73.5328540  49.7137530  32.1305330  75.0307510  31.3549290
  32.0480000  75.9738270  31.4964280  31.7788390  74.8882420  30.4761640
  43.4926070  77.0892340  42.0167150  42.7607190  77.5979150  42.3657250
  43.0950410  76.2722320  41.7155930  39.9303460  73.7646540  40.4219640
  39.9339520  73.3236490  39.5724180  40.8254580  74.0863870  40.5291460
  35.7805840  73.6473030  39.3813850  35.4405890  74.1248260  40.1380900
  35.0183160  73.1938150  39.0214950  39.9923610  74.7658620  33.4126400
  40.1136430  74.7245100  34.3612220  39.6072120  75.6282770  33.2573130
  39.0045110  77.0759760  32.8109700  38.4362010  76.6278010  32.1845610
  39.7134110  77.4352540  32.2774850  34.0814290  80.9771780  46.6876430
  33.6969080  80.3365450  47.2859390  34.3926480  81.6807900  47.2571160
  40.2311430  77.8248320  42.1685050  40.5981560  77.3506890  42.9146390
  40.0416490  78.6989890  42.5093390  33.0951920  72.5692010  38.2978520
  32.8098840  72.2047680  39.1357140  33.0330780  71.8372470  37.6841660
  38.0210800  76.8656960  44.4869260  37.7167870  77.7448940  44.7119620
  38.9757260  76.9256750  44.5226700  36.5492590  81.0717950  35.0836110
  35.7754850  80.5315570  34.9234830  37.2787220  80.5524560  34.7453870
  42.7690510  71.4621270  35.0191890  41.9555120  70.9634440  34.9437200
  42.5752460  72.3019520  34.6028240  42.6899370  80.1392370  46.7631500
  42.6236680  79.2188040  46.5089090  42.0604510  80.2367810  47.4776140
  45.4838900  75.8340920  33.3154050  46.3718520  76.1458150  33.1405390
  45.4543990  74.9613170  32.9234630  36.5929990  80.7398330  38.7214920
  37.1108660  79.9366590  38.6671810  36.1414010  80.6777470  39.5631750
  41.4799490  82.0064610  33.9942220  41.8215190  82.7506840  33.4985540
  40.6512200  82.3195730  34.3567050  34.0774530  77.7059700  45.6340620
  33.7189470  78.3713550  46.2213960  33.7829090  76.8743250  46.0053240
  37.2787650  78.1643940  48.5180170  36.9787790  78.3101120  47.6207990
  38.0498890  77.6049230  48.4253560  42.6216100  82.9612940  46.5135300
  42.6360640  82.0293900  46.2954210  41.9141200  83.0472700  47.1525070
  47.7553170  77.1452760  32.7833910  47.6716890  77.5766980  31.9330350
  48.4747360  77.6051110  33.2160730  48.7840420  83.9995020  35.5116040
  48.1416580  83.3450640  35.7859760  48.3971080  84.4050110  34.7356710
  44.3626900  81.3280450  39.3587730  44.7150720  80.7308580  38.6989100
  43.4789230  81.0024680  39.5295980  40.4490180  82.0878140  36.7658140
  41.1361310  82.6347350  37.1465730  39.6622600  82.6318870  36.8007750
  32.5882580  77.7050960  32.2575220  33.4577430  77.9875760  32.5411140
  32.0972900  78.5186830  32.1424030  39.7517390  79.0924170  36.3783500
  40.2080170  79.9029420  36.6043690  39.4005600  78.7747310  37.2101990
  42.0550000  84.6030510  43.6075800  42.6992220  84.8089890  44.2849220
  42.4179440  83.8418910  43.1546650  43.3282080  82.6062860  42.3253250
  43.9704310  81.9056020  42.4385420  43.8531430  83.3861300  42.1450140
  47.1737800  82.8911480  32.0492390  46.9475380  82.1741920  32.6417030
  46.7834000  82.6423920  31.2114140  45.1019700  83.4057760  45.5289310
  45.4375940  83.9924450  46.2067230  44.1820040  83.2750470  45.7587100
  32.9553830  86.9178340  32.8236850  33.3151470  87.5167680  32.1694120
  32.8146170  87.4638230  33.5971880  46.7554050  80.8083420  33.7106550
  46.4675750  81.2696110  34.4984430  47.5506220  80.3481190  33.9790770
  32.9395690  85.1833200  47.2979250  33.0486810  84.2427940  47.1574640
  32.2876250  85.4487950  46.6492980  40.9308280  83.4549090  48.6977370
  40.6105150  82.7358330  49.2423060  40.2566640  84.1304160  48.7713430
  38.9722450  84.3009540  33.6410520  38.9632550  85.0339230  33.0255030
  38.0520810  84.0541120  33.7337480  34.5729090  79.5224430  34.3857280
  33.9657040  80.2623330  34.3952580  35.0478440  79.6123790  33.5595480
  47.5123910  72.6432190  34.8701730  46.8837070  72.7477860  34.1559960
  47.0175830  72.8628970  35.6595610  41.9582050  84.3637780  32.3035710
  42.0594030  84.1601770  31.3737690  41.0583790  84.1096060  32.5083490
  39.4807940  74.9218140  36.2859610  38.7724090  75.3904480  36.7273220
  39.7652420  74.2640150  36.9204800  41.1063870  76.3414840  44.2852140
  41.6049120  76.8160660  44.9503990  41.2486820  75.4178360  44.4922170
  43.5123370  71.6468800  37.7255400  43.3891150  71.6654930  36.7764910
  44.4607930  71.6947740  37.8453800  40.6000160  86.8824100  36.9983380
  40.8541660  86.8445490  36.0762750  39.6512640  86.7557430  36.9911630
  46.6052740  77.8015980  38.5741890  45.6642880  77.8166210  38.7489580
  46.9196810  77.0151940  39.0202190  36.5834380  79.4835580  32.1345850
  37.3497650  79.3716940  32.6971280  36.6609070  78.7873550  31.4822620
  35.2781140  76.9160650  32.8178740  35.3584730  75.9688160  32.9296140
  36.1700890  77.2467530  32.9239400  48.6078320  84.9724830  40.2496150
  48.7325740  85.7956000  40.7219960  49.4743880  84.7615560  39.9020300
  36.0795850  87.0656040  39.9213280  36.8158330  86.5171500  40.1921850
  36.4636770  87.9312050  39.7819270  32.9641330  83.1329610  35.7954790
  32.0381110  83.3750750  35.7860200  33.4297760  83.9603870  35.6739540
  35.0854130  86.2502110  49.1098860  35.8866860  86.5714160  49.5234260
  34.5705950  85.8897690  49.8318770  39.1898160  86.2386350  31.7438850
  39.9826770  86.5275180  31.2920640  38.6702510  85.8078520  31.0651330
  43.9218760  82.3581980  49.0574270  43.3156920  82.3813580  48.3170020
  43.6172870  81.6265020  49.5941520  45.3519130  86.0862270  47.6683680
  46.3040880  86.0020290  47.6183920  45.2047350  86.7503980  48.3417470
  48.2428330  85.4656480  33.1675590  47.9569840  85.0521620  32.3529770
  48.0447880  86.3944190  33.0476110  32.8051940  78.7375570  48.0534910
  33.3090960  78.1582850  48.6251140  32.0659360  79.0215800  48.5911280
  39.7075560  81.4589760  31.6081200  39.6026200  80.8442110  32.3342580
  39.5399780  80.9355650  30.8244210  39.8589880  80.1446560  47.5870430
  39.0935550  80.7131560  47.5025100  40.0405840  79.8522770  46.6938660
  42.9478290  80.5209790  32.2123190  42.3988390  80.9679090  32.8565930
  43.5697550  80.0159040  32.7360860  47.0013230  81.8751890  48.1445450
  47.7422700  82.2127650  47.6412910  46.2385910  82.0443950  47.5915220
  34.8375020  76.8805160  48.9484980  34.8780360  76.5819030  49.8570210
  35.6920520  77.2812770  48.7892500  38.6153410  79.4800710  34.1088490
  39.0369830  79.3140580  34.9519880  38.7404250  78.6700940  33.6143630
  36.7780830  75.4597260  46.9159470  36.2477290  74.9688210  46.2882810
  37.4468900  75.8881460  46.3817400  41.1281050  78.5038320  31.3565590
  41.6486710  77.7887340  30.9906740  41.7749450  79.1424190  31.6566100
  37.2653130  72.4259630  46.9956760  37.1710000  71.8080380  46.2707630
  36.6850520  73.1525920  46.7686670  40.4374120  79.8787200  44.6496590
  40.8562230  80.7219930  44.4772830  39.5182750  80.0159240  44.4203370
  37.5112310  75.5533940  31.0546650  37.3101370  74.6901300  31.4159990
  37.3404360  75.4667300  30.1168250  38.2881540  86.1840210  45.7654320
  37.7502630  86.9086270  45.4463020  38.5415500  85.7070550  44.9751660
  39.5406790  74.1524730  47.2910250  40.1306480  73.8440580  47.9788070
  38.7227030  73.6804480  47.4470150  44.9900620  70.3642170  33.5833530
  45.2702910  69.5210070  33.9392950  44.2166350  70.5965280  34.0972280
  41.1443750  87.4191420  46.0240970  41.0702450  88.3226560  46.3313340
  40.2422590  87.1003320  45.9963040  41.6929080  86.5849930  33.6467330
  42.5879870  86.9234900  33.6686090  41.7246710  85.8629340  33.0191610
  35.3325240  81.9576980  31.8754330  35.7700110  82.5006650  32.5311910
  35.8172970  81.1323930  31.8850670  32.5471040  84.7466010  39.3274590
  32.8774050  83.8787070  39.0953230  32.9762040  84.9524530  40.1579550
  37.1432960  83.0775020  36.9876560  36.8428500  82.9539990  37.8880470
  37.0370450  82.2183610  36.5792290  33.0361250  85.6136600  42.0656220
  32.5992240  85.7937400  42.8980370  33.6038930  86.3711220  41.9237940
  48.6723430  85.1153600  46.3533530  48.0725420  85.1746160  45.6097450
  48.8017330  84.1758580  46.4830380  49.9124880  82.8571420  31.6903240
  49.0817840  82.9248070  32.1610470  50.0896710  83.7475540  31.3870100
  49.3681340  79.6018900  34.1937440  50.1300250  80.1715550  34.2997130
  49.3835710  79.0346100  34.9645750  32.8685680  78.1256830  38.4245100
  32.2134520  77.8568470  37.7804800  33.7063630  78.0161310  37.9747080
  49.4200510  79.8953270  31.3509960  49.6949350  80.8032150  31.2229180
  49.2311250  79.8315800  32.2871950  45.8176120  72.9198120  32.6463590
  46.2361000  72.7329100  31.8060250  45.5112180  72.0677170  32.9566520
  49.3165850  77.8322260  36.3439390  48.9409450  77.0650190  35.9120680
  48.5868970  78.2144960  36.8314320  33.9061610  78.5109400  42.9648440
  34.2734650  78.4236800  43.8444460  33.3372430  77.7475950  42.8655300
  33.4577610  75.4218490  46.8706860  32.5633660  75.3885250  47.2100570
  33.9975160  75.6205280  47.6358110  47.1453540  72.2050210  48.7558610
  48.0223720  72.2133610  49.1392610  47.1574380  71.4681050  48.1450960
  32.0823760  75.3355760  34.3670430  31.1787840  75.5985960  34.1922090
  32.5664380  75.6066930  33.5870390  34.6250970  74.3921300  32.2764810
  35.3342670  73.9704520  31.7912090  33.9090910  74.4596530  31.6448160
  48.0816780  75.3153100  35.5839040  48.5775900  75.0823970  36.3687920
  47.8832850  74.4764940  35.1676680  49.5103940  73.9514050  38.1176720
  49.4003220  73.7970090  39.0558990  50.2711530  73.4234990  37.8752130
  50.3994210  71.7821970  31.3582860  51.3243520  71.6503150  31.1501150
  50.3770000  71.8614790  32.3119310  50.4732700  72.5532630  33.9839570
  49.6784200  72.4877750  34.5132480  50.6775980  73.4883270  33.9724920
  47.4151120  86.5924180  37.9777960  48.0110190  86.2708750  37.3012380
  47.6729270  86.1196000  38.7691230  35.3213690  83.0242090  48.1268590
  35.2783320  82.6535000  49.0083050  35.4524700  83.9619660  48.2670410
  39.0219720  84.5801680  43.7278310  38.7811080  84.8476240  42.8408830
  39.9622360  84.7507410  43.7829170  41.2274140  71.0434370  47.4834820
  41.1663030  71.6356200  48.2330230  42.1674520  70.9360330  47.3385080
  50.2823880  86.5996060  44.5288950  49.7882160  86.9964930  43.8116080
  49.6737170  85.9745270  44.9226230  35.1601720  85.9704340  45.2466370
  34.5662040  85.8389040  45.9856410  35.1525560  85.1342480  44.7808470
  47.9663330  87.2419480  41.8075690  47.5066300  87.9935290  41.4333710
  47.3375790  86.5225950  41.7490490  34.7913950  83.3362720  44.1974410
  34.0648010  82.7168010  44.1300360  34.8523100  83.7303330  43.3272490
  38.3959050  85.5507720  40.9823820  38.9124070  84.9395080  40.4572080
  39.0456430  86.0536500  41.4734830  41.1354550  86.4416210  41.8092800
  41.4232360  86.1870510  40.9325810  41.6477770  85.8893570  42.3998370
  33.0743950  86.6537110  37.4071170  32.9065990  86.0207790  38.1053060
  32.2078460  86.8596510  37.0565360  40.2385780  72.5993160  37.9005340
  39.4260290  72.2250050  37.5601220  40.7427420  71.8438240  38.2026530
  44.7410760  69.2635610  39.1388410  45.3440130  69.8355820  39.6136930
  44.0003750  69.8275050  38.9162310  47.8845360  69.6657170  34.4128690
  48.0795990  70.5640620  34.6796120  47.0975230  69.4344250  34.9061640
  34.6806650  85.3470340  34.8521310  34.1554270  85.7278370  34.1483270
  34.6051230  85.9721110  35.5731020  41.2026910  87.3632310  49.1761000
  42.1294220  87.1276580  49.2196960  41.1877340  88.1904310  48.6947030
  49.4371970  86.9057880  36.1735250  49.6124160  86.2195620  35.5296170
  48.7393540  87.4304930  35.7811920  38.3890520  70.0277060  48.9402880
  38.1074790  70.5310660  48.1763700  38.7710220  69.2298810  48.5745010
  37.2799620  87.2952720  33.7270560  38.0118440  87.0112000  33.1794450
  37.5393290  87.0566000  34.6169940  36.4414410  83.4117450  33.7316890
  35.8123290  83.8802550  34.2802720  36.5562240  82.5666670  34.1663080
  44.9905980  69.4430640  49.5183350  44.8771430  69.7625250  50.4134870
  45.8075720  69.8443150  49.2220630  47.7704470  86.5902170  49.0002040
  48.5629790  86.0951400  48.7928000  48.0637620  87.2692310  49.6077650
  43.8964130  77.4623110  19.8818090  43.8158180  76.5477720  19.6109800
  43.4828550  77.9590180  19.1757800  42.0282170  79.2402130  21.7627360
  41.2524270  78.7602570  22.0525930  42.6795100  78.5607780  21.5883520
  36.0448000  79.5521940  22.6403120  35.2132880  79.2970650  23.0399630
  36.6528980  79.6232710  23.3761040  46.0489600  83.6462320  20.5426490
  45.5871130  82.8749560  20.8713660  46.8615150  83.6728390  21.0478940
  36.0249260  83.5862030  22.8361140  36.3277300  82.6959770  22.6571360
  36.7692850  84.1432250  22.6083390  34.4539950  74.5123830  16.4245510
  33.5656650  74.8539800  16.3225390  34.7381140  74.3124150  15.5326340
  32.4172960  77.1129480  22.3085210  32.9889070  76.3451680  22.3088850
  32.4174500  77.4118240  21.3991820  42.2752910  85.9320330  20.1630480
  41.6564350  86.3877830  19.5924920  43.1304690  86.0871790  19.7620180
  41.4691160  81.9159320  21.7697520  41.3999440  80.9749260  21.6086650
  42.2311020  82.0060730  22.3420090  33.6597830  72.5213840  24.0954140
  33.4800670  71.6239590  24.3756900  33.2577910  73.0685710  24.7701090
  42.4996330  74.7229700  21.9966450  42.8761150  73.8501580  21.8840120
  42.4015840  75.0588400  21.1056890  36.6301340  73.0955330  17.4583890
  36.7368090  73.9959060  17.7652650  35.7193700  73.0473300  17.1678540
  46.2820450  72.2180140  18.9294790  47.1030070  71.7276710  18.9720270
  46.3154530  72.8077800  19.6826630  34.2784500  75.0174340  22.7036480
  34.9594610  75.2812710  23.3223880  33.9632550  74.1775210  23.0374490
  38.4709070  76.0641700  21.7909070  38.9787290  76.5622670  22.4314090
  39.0022310  75.2876900  21.6148430  50.5720000  74.2346890  25.4938420
  49.8672170  74.6228600  24.9753530  50.8377920  74.9297180  26.0959350
  43.1416260  80.8159570  17.5562390  42.5233530  81.2809020  16.9925110
  43.6539510  81.5087050  17.9731900  38.0048020  80.3435440  24.2345990
  37.6717400  80.9704360  24.8767060  38.1814700  80.8697320  23.4547660
  46.5181930  74.1580520  21.7022330  45.8137500  74.4465410  22.2825440
  46.8794090  74.9680630  21.3421890  36.4360500  72.4150220  24.0642940
  36.7777310  73.2592270  23.7696810  35.4976310  72.5633960  24.1808280
  37.2167120  82.3116240  26.0495170  37.8341120  82.9867320  25.7679620
  36.3560240  82.7204220  25.9582670  32.5099460  81.5016100  14.9302020
  32.1327440  81.9903200  14.1986920  32.7672530  82.1741380  15.5608550
  48.1344710  83.7755650  23.9649810  47.4508230  84.4454760  23.9566480
  48.6739000  83.9736300  23.1994670  49.5868850  73.6035310  22.0931540
  48.6393760  73.6374290  22.2246970  49.9118840  74.4174260  22.4780900
  40.1188390  69.9032490  20.3887530  40.4263370  69.3479380  19.6723030
  39.1889090  70.0376950  20.2060520  45.6703450  85.6199780  22.6794990
  45.6830610  85.2162070  21.8117250  45.1178670  86.3947070  22.5756420
  46.9648870  82.3416000  17.7685160  46.8545200  81.3990330  17.8934580
  46.9617120  82.7031640  18.6547920  45.0688890  80.5229620  24.0077600
  45.4857680  80.3089730  23.1731060  45.7928710  80.7802410  24.5786220
  42.5069150  77.9681320  17.1247650  41.5798430  77.9018700  17.3536120
  42.6593970  78.9061450  17.0102890  42.4938230  74.2398320  14.1214810
  41.5541900  74.4012280  14.2067270  42.8121490  74.9584000  13.5750800
  49.0150990  78.9216840  24.0993840  48.1869620  78.9909930  23.6243970
  49.6101470  79.5071150  23.6309670  46.5366440  79.5301620  17.6282900
  45.9178860  79.1921170  16.9809200  46.5190890  78.8861380  18.3362090
  45.9793000  75.7086160  25.0448710  45.5664180  76.5339870  25.2988700
  45.2468950  75.1231200  24.8525070  38.1125790  78.4946060  19.9067380
  37.7082790  77.7823310  19.4113280  38.1988910  78.1499300  20.7955420
  38.5807490  82.1813620  22.0706590  38.2835780  81.5759090  21.3914370
  39.5307310  82.2190930  21.9595950  36.8254410  75.2689270  23.6866420
  37.3769000  75.3784610  22.9119670  37.3397920  75.6426870  24.4021650
  46.6693100  85.7545490  25.7329690  46.1923660  86.5617680  25.5402300
  45.9854890  85.1023820  25.8855900  37.6725920  81.9195310  28.7214390
  36.7754450  82.1435280  28.9687790  37.6978790  82.0430250  27.7725790
  44.7131140  78.7688430  14.6355650  45.1524420  77.9310860  14.4893470
  45.4259560  79.4017830  14.7219790  36.4997140  78.7908630  27.2971760
  36.3604910  79.6631430  27.6659160  35.6178500  78.4481440  27.1519700
  42.8226520  83.7084500  18.6036890  43.2622430  84.4508830  18.1892280
  42.7613410  83.9511070  19.5275850  38.2977490  84.7330330  29.5056910
  38.2692920  85.1373280  28.6385340  38.1342460  83.8040690  29.3428510
  48.2948280  70.0231240  12.9496690  47.9820940  70.1158070  13.8495760
  49.0560750  70.6012270  12.8994120  34.8130420  77.3891040  17.4074030
  34.6928020  78.1153130  16.7955300  34.5031310  76.6193950  16.9301940
  50.2492310  85.5157430  30.8021080  50.7252030  85.9940320  31.4810160
  50.8699470  85.4474920  30.0766580  32.4515790  80.5606180  23.2142670
  32.5296210  80.6954950  22.2698390  33.0657470  79.8522070  23.4070790
  33.6963420  82.2606370  19.6248850  33.2891500  82.4020960  18.7702450
  34.5876430  81.9766530  19.4220060  49.6525560  82.7070280  27.9621090
  49.7788620  82.4682160  27.0438270  49.6946940  81.8754820  28.4343170
  43.5142300  86.4098280  26.5315900  44.0286970  86.3206290  27.3338330
  42.6711380  86.7557980  26.8243810  45.4896700  86.6953620  15.9599900
  45.3297840  86.4056560  16.8581730  45.3243410  85.9193750  15.4245130
  37.9685080  86.4752150  17.7371520  37.7927560  85.5587690  17.5239320
  37.1140820  86.8339440  17.9769320  45.1922830  84.2041180  14.5197900
  44.4987990  84.2018470  13.8600180  45.9345690  83.7800500  14.0892070
  44.7572760  85.8303890  18.5946390  45.2129710  85.0493270  18.9085010
  45.0965280  86.5410710  19.1387570  49.5049570  74.7602740  28.9270830
  48.8893840  75.2682410  28.3986290  49.1845990  73.8601070  28.8696770
  32.5075310  81.6020350  25.7537130  32.6706350  81.1325710  24.9356500
  32.9727760  81.0943910  26.4185970  37.2794080  70.7326110  20.7897700
  36.8362230  71.5135650  20.4582220  37.8379070  71.0556000  21.4968640
  41.5663890  73.5994630  26.3933020  41.1043260  73.8077650  27.2052960
  41.1642000  72.7853980  26.0903690  46.5668400  74.8203580  27.5229680
  45.7161990  74.5209330  27.8438750  46.4070190  75.0645590  26.6113500
  43.6618110  76.3205330  29.6228470  43.9871520  75.4869080  29.2830700
  44.4498440  76.8433850  29.7706800  40.3952900  70.3536810  15.6703530
  39.7707080  70.3496680  16.3956840  40.3083020  69.4867770  15.2739500
  39.3169980  71.2773440  22.6487300  39.6142310  72.1836270  22.5679320
  39.8655540  70.7892220  22.0346870  37.0708300  75.8559680  18.5178950
  36.8449220  75.6396850  19.4225570  36.2900830  76.2888140  18.1724920
  44.3006060  75.8623050  17.1169600  43.7014950  76.5858850  16.9333220
  44.8485670  75.7999830  16.3346050  39.5107510  76.7545260  29.1839220
  39.4151110  75.8139990  29.0339620  40.3539490  76.9760330  28.7887290
  42.9070930  74.4986590  19.1472880  43.3000500  74.8158790  18.3341570
  43.2687780  73.6198470  19.2617400  34.6418050  73.1658930  27.3373000
  34.2481440  74.0134140  27.5445780  33.9536450  72.5285300  27.5281640
  41.2163100  73.2493900  30.4069740  40.5261420  73.0566100  31.0415830
  41.9595400  73.5328540  30.9394040  31.9435100  71.0887390  21.3703080
  31.6548150  71.6590250  22.0828060  32.6880860  70.6091840  21.7334310
  32.1305330  75.0307510  12.5805800  32.0480000  75.9738270  12.7220790
  31.7788390  74.8882420  11.7018150  43.4926070  77.0892340  23.2423660
  42.7607190  77.5979150  23.5913760  43.0950410  76.2722320  22.9412440
  39.9303460  73.7646540  21.6476150  39.9339520  73.3236490  20.7980690
  40.8254580  74.0863870  21.7547970  35.7805840  73.6473030  20.6070360
  35.4405890  74.1248260  21.3637410  35.0183160  73.1938150  20.2471460
  39.9923610  74.7658620  14.6382910  40.1136430  74.7245100  15.5868730
  39.6072120  75.6282770  14.4829640  43.9551980  72.5426020  22.6546600
  43.9724720  72.9934670  23.4988450  43.7067560  71.6431660  22.8680040
  39.0045110  77.0759760  14.0366210  38.4362010  76.6278010  13.4102120
  39.7134110  77.4352540  13.5031360  47.3822730  69.9558200  28.4932980
  47.7068500  69.2247860  29.0190960  47.4179240  69.6371840  27.5913970
  34.0814290  80.9771780  27.9132940  33.6969080  80.3365450  28.5115900
  34.3926480  81.6807900  28.4827670  40.2311430  77.8248320  23.3941560
  40.5981560  77.3506890  24.1402900  40.0416490  78.6989890  23.7349900
  33.0951920  72.5692010  19.5235030  32.8098840  72.2047680  20.3613650
  33.0330780  71.8372470  18.9098170  38.0210800  76.8656960  25.7125770
  37.7167870  77.7448940  25.9376130  38.9757260  76.9256750  25.7483210
  36.5492590  81.0717950  16.3092620  35.7754850  80.5315570  16.1491340
  37.2787220  80.5524560  15.9710380  47.3080570  80.0683310  22.1019010
  48.0279690  80.5638600  21.7115120  47.1062390  79.3901200  21.4572880
  42.7690510  71.4621270  16.2448400  41.9555120  70.9634440  16.1693710
  42.5752460  72.3019520  15.8284750  42.6899370  80.1392370  27.9888010
  42.6236680  79.2188040  27.7345600  42.0604510  80.2367810  28.7032650
  45.4838900  75.8340920  14.5410560  46.3718520  76.1458150  14.3661900
  45.4543990  74.9613170  14.1491140  36.5929990  80.7398330  19.9471430
  37.1108660  79.9366590  19.8928320  36.1414010  80.6777470  20.7888260
  41.4799490  82.0064610  15.2198730  41.8215190  82.7506840  14.7242050
  40.6512200  82.3195730  15.5823560  34.0774530  77.7059700  26.8597130
  33.7189470  78.3713550  27.4470470  33.7829090  76.8743250  27.2309750
  37.2787650  78.1643940  29.7436680  36.9787790  78.3101120  28.8464500
  38.0498890  77.6049230  29.6510070  42.6216100  82.9612940  27.7391810
  42.6360640  82.0293900  27.5210720  41.9141200  83.0472700  28.3781580
  47.7553170  77.1452760  14.0090420  47.6716890  77.5766980  13.1586860
  48.4747360  77.6051110  14.4417240  48.8327310  79.6020280  27.0860390
  48.1075500  80.1949060  26.8889780  49.3602770  79.5943820  26.2873760
  48.7840420  83.9995020  16.7372550  48.1416580  83.3450640  17.0116270
  48.3971080  84.4050110  15.9613220  44.3626900  81.3280450  20.5844240
  44.7150720  80.7308580  19.9245610  43.4789230  81.0024680  20.7552490
  40.4490180  82.0878140  17.9914650  41.1361310  82.6347350  18.3722240
  39.6622600  82.6318870  18.0264260  32.5882580  77.7050960  13.4831730
  33.4577430  77.9875760  13.7667650  32.0972900  78.5186830  13.3680540
  39.7517390  79.0924170  17.6040010  40.2080170  79.9029420  17.8300200
  39.4005600  78.7747310  18.4358500  42.0550000  84.6030510  24.8332310
  42.6992220  84.8089890  25.5105730  42.4179440  83.8418910  24.3803160
  35.6529170  69.4361820  18.0762530  35.5243800  69.4279720  19.0247450
  34.8291190  69.7744910  17.7253540  43.3282080  82.6062860  23.5509760
  43.9704310  81.9056020  23.6641930  43.8531430  83.3861300  23.3706650
  47.1737800  82.8911480  13.2748900  46.9475380  82.1741920  13.8673540
  46.7834000  82.6423920  12.4370650  45.1019700  83.4057760  26.7545820
  45.4375940  83.9924450  27.4323740  44.1820040  83.2750470  26.9843610
  32.9553830  86.9178340  14.0493360  33.3151470  87.5167680  13.3950630
  32.8146170  87.4638230  14.8228390  46.7554050  80.8083420  14.9363060
  46.4675750  81.2696110  15.7240940  47.5506220  80.3481190  15.2047280
  32.9395690  85.1833200  28.5235760  33.0486810  84.2427940  28.3831150
  32.2876250  85.4487950  27.8749490  40.9308280  83.4549090  29.9233880
  40.6105150  82.7358330  30.4679570  40.2566640  84.1304160  29.9969940
  38.9722450  84.3009540  14.8667030  38.9632550  85.0339230  14.2511540
  38.0520810  84.0541120  14.9593990  34.5729090  79.5224430  15.6113790
  33.9657040  80.2623330  15.6209090  35.0478440  79.6123790  14.7851990
  44.1461880  73.6875250  25.2870680  44.5142700  72.8670460  25.6150250
  43.2860080  73.7477140  25.7026330  47.5123910  72.6432190  16.0958240
  46.8837070  72.7477860  15.3816470  47.0175830  72.8628970  16.8852120
  41.9582050  84.3637780  13.5292220  42.0594030  84.1601770  12.5994200
  41.0583790  84.1096060  13.7340000  39.4807940  74.9218140  17.5116120
  38.7724090  75.3904480  17.9529730  39.7652420  74.2640150  18.1461310
  41.1063870  76.3414840  25.5108650  41.6049120  76.8160660  26.1760500
  41.2486820  75.4178360  25.7178680  43.5123370  71.6468800  18.9511910
  43.3891150  71.6654930  18.0021420  44.4607930  71.6947740  19.0710310
  40.6000160  86.8824100  18.2239890  40.8541660  86.8445490  17.3019260
  39.6512640  86.7557430  18.2168140  37.6842960  73.2303220  14.8866830
  38.5333490  73.6673370  14.8207020  37.3174230  73.5423480  15.7138890
  48.3130730  72.5582800  26.3537040  47.8104330  73.2988200  26.6930850
  49.1287390  72.9466800  26.0373830  46.6052740  77.8015980  19.7998400
  45.6642880  77.8166210  19.9746090  46.9196810  77.0151940  20.2458700
  36.5834380  79.4835580  13.3602360  37.3497650  79.3716940  13.9227790
  36.6609070  78.7873550  12.7079130  35.2781140  76.9160650  14.0435250
  35.3584730  75.9688160  14.1552650  36.1700890  77.2467530  14.1495910
  48.6078320  84.9724830  21.4752660  48.7325740  85.7956000  21.9476470
  49.4743880  84.7615560  21.1276810  36.0795850  87.0656040  21.1469790
  36.8158330  86.5171500  21.4178360  36.4636770  87.9312050  21.0075780
  32.9641330  83.1329610  17.0211300  32.0381110  83.3750750  17.0116710
  33.4297760  83.9603870  16.8996050  35.0854130  86.2502110  30.3355370
  35.8866860  86.5714160  30.7490770  34.5705950  85.8897690  31.0575280
  39.1898160  86.2386350  12.9695360  39.9826770  86.5275180  12.5177150
  38.6702510  85.8078520  12.2907840  43.9218760  82.3581980  30.2830780
  43.3156920  82.3813580  29.5426530  43.6172870  81.6265020  30.8198030
  45.3519130  86.0862270  28.8940190  46.3040880  86.0020290  28.8440430
  45.2047350  86.7503980  29.5673980  48.2428330  85.4656480  14.3932100
  47.9569840  85.0521620  13.5786280  48.0447880  86.3944190  14.2732620
  32.8051940  78.7375570  29.2791420  33.3090960  78.1582850  29.8507650
  32.0659360  79.0215800  29.8167790  39.7075560  81.4589760  12.8337710
  39.6026200  80.8442110  13.5599090  39.5399780  80.9355650  12.0500720
  39.8589880  80.1446560  28.8126940  39.0935550  80.7131560  28.7281610
  40.0405840  79.8522770  27.9195170  42.9478290  80.5209790  13.4379700
  42.3988390  80.9679090  14.0822440  43.5697550  80.0159040  13.9617370
  47.0013230  81.8751890  29.3701960  47.7422700  82.2127650  28.8669420
  46.2385910  82.0443950  28.8171730  34.8375020  76.8805160  30.1741490
  34.8780360  76.5819030  31.0826720  35.6920520  77.2812770  30.0149010
  36.7780830  75.4597260  28.1415980  36.2477290  74.9688210  27.5139320
  37.4468900  75.8881460  27.6073910  41.1281050  78.5038320  12.5822100
  41.6486710  77.7887340  12.2163250  41.7749450  79.1424190  12.8822610
  45.6758890  79.9266720  27.9057170  46.0899910  80.0811800  28.7547590
  44.7409890  80.0521940  28.0682950  46.1481060  77.2662880  29.9096320
  46.7301830  76.5115200  29.8216800  46.3242830  77.7970320  29.1327800
  40.0314570  70.9832870  25.2540660  39.5831870  71.0057130  24.4086210
  39.3979770  70.5851890  25.8510960  40.4374120  79.8787200  25.8753100
  40.8562230  80.7219930  25.7029340  39.5182750  80.0159240  25.6459880
  42.7738020  77.6103380  27.2590940  42.8934230  77.0144520  27.9985780
  43.6332020  77.6473070  26.8392240  45.1125920  78.1640570  25.8353450
  44.5861140  78.6883190  25.2318590  45.4557260  78.7967960  26.4663180
  37.5112310  75.5533940  12.2803160  37.3101370  74.6901300  12.6416500
  37.3404360  75.4667300  11.3424760  38.2881540  86.1840210  26.9910830
  37.7502630  86.9086270  26.6719530  38.5415500  85.7070550  26.2008170
  39.5406790  74.1524730  28.5166760  40.1306480  73.8440580  29.2044580
  38.7227030  73.6804480  28.6726660  44.3600220  73.7690540  28.7499780
  43.6715740  73.1072080  28.6849770  45.0806240  73.3228810  29.1948240
  44.9900620  70.3642170  14.8090040  45.2702910  69.5210070  15.1649460
  44.2166350  70.5965280  15.3228790  36.3095110  72.6534560  12.2681040
  36.6121010  72.6601990  11.3600190  37.0489700  72.3032420  12.7648700
  41.1443750  87.4191420  27.2497480  41.0702450  88.3226560  27.5569850
  40.2422590  87.1003320  27.2219550  39.5280040  71.5969180  13.2537240
  39.1802040  70.9193170  12.6739690  39.7292810  71.1358690  14.0680630
  41.6929080  86.5849930  14.8723840  42.5879870  86.9234900  14.8942600
  41.7246710  85.8629340  14.2448120  35.3325240  81.9576980  13.1010840
  35.7700110  82.5006650  13.7568420  35.8172970  81.1323930  13.1107180
  32.5471040  84.7466010  20.5531100  32.8774050  83.8787070  20.3209740
  32.9762040  84.9524530  21.3836060  33.0361250  85.6136600  23.2912730
  32.5992240  85.7937400  24.1236880  33.6038930  86.3711220  23.1494450
  48.6723430  85.1153600  27.5790040  48.0725420  85.1746160  26.8353960
  48.8017330  84.1758580  27.7086890  49.9124880  82.8571420  12.9159750
  49.0817840  82.9248070  13.3866980  50.0896710  83.7475540  12.6126610
  49.3681340  79.6018900  15.4193950  50.1300250  80.1715550  15.5253640
  49.3835710  79.0346100  16.1902260  32.8685680  78.1256830  19.6501610
  32.2134520  77.8568470  19.0061310  33.7063630  78.0161310  19.2003590
  50.3741310  80.4569000  20.2635880  50.7450140  79.6736320  19.8571850
  51.0143240  81.1458100  20.0853180  47.3575070  81.8405580  25.6766200
  46.5434910  82.2702740  25.9391990  47.7649270  82.4523990  25.0635250
  49.4200510  79.8953270  12.5766470  49.6949350  80.8032150  12.4485690
  49.2311250  79.8315800  13.5128460  45.8176120  72.9198120  13.8720100
  46.2361000  72.7329100  13.0316760  45.5112180  72.0677170  14.1823030
  49.3165850  77.8322260  17.5695900  48.9409450  77.0650190  17.1377190
  48.5868970  78.2144960  18.0570830  33.9061610  78.5109400  24.1904950
  34.2734650  78.4236800  25.0700970  33.3372430  77.7475950  24.0911810
  48.7065470  76.9793780  27.2035420  48.4751560  76.7506530  26.3033370
  48.9670020  77.8993330  27.1580310  33.4577610  75.4218490  28.0963370
  32.5633660  75.3885250  28.4357080  33.9975160  75.6205280  28.8614620
  47.1453540  72.2050210  29.9815120  48.0223720  72.2133610  30.3649120
  47.1574380  71.4681050  29.3707470  32.0823760  75.3355760  15.5926940
  31.1787840  75.5985960  15.4178600  32.5664380  75.6066930  14.8126900
  48.5916810  76.0579750  20.8703140  49.1154290  75.5642400  20.2393310
  49.1776230  76.1930110  21.6150710  48.7706530  76.1419620  24.3922690
  47.8209240  76.1083160  24.5067680  48.9519540  77.0519730  24.1572460
  34.6250970  74.3921300  13.5021320  35.3342670  73.9704520  13.0168600
  33.9090910  74.4596530  12.8704670  34.2725130  70.4460630  12.5423970
  34.9953260  70.9869570  12.8605190  34.5449650  70.1724050  11.6665510
  48.0816780  75.3153100  16.8095550  48.5775900  75.0823970  17.5944430
  47.8832850  74.4764940  16.3933190  49.5103940  73.9514050  19.3433230
  49.4003220  73.7970090  20.2815500  50.2711530  73.4234990  19.1008640
  50.3994210  71.7821970  12.5839370  51.3243520  71.6503150  12.3757660
  50.3770000  71.8614790  13.5375820  50.4732700  72.5532630  15.2096080
  49.6784200  72.4877750  15.7388990  50.6775980  73.4883270  15.1981430
  47.4151120  86.5924180  19.2034470  48.0110190  86.2708750  18.5268890
  47.6729270  86.1196000  19.9947740  35.3213690  83.0242090  29.3525100
  35.2783320  82.6535000  30.2339560  35.4524700  83.9619660  29.4926920
  39.0219720  84.5801680  24.9534820  38.7811080  84.8476240  24.0665340
  39.9622360  84.7507410  25.0085680  41.2274140  71.0434370  28.7091330
  41.1663030  71.6356200  29.4586740  42.1674520  70.9360330  28.5641590
  43.8648700  70.7004430  28.3483620  44.4789110  71.0183720  27.6864700
  44.4098260  70.2153020  28.9679480  50.2823880  86.5996060  25.7545460
  49.7882160  86.9964930  25.0372590  49.6737170  85.9745270  26.1482740
  35.1601720  85.9704340  26.4722880  34.5662040  85.8389040  27.2112920
  35.1525560  85.1342480  26.0064980  44.6056740  69.2636570  24.6752910
  43.7316580  69.5971680  24.4725840  44.4967490  68.7909750  25.5004780
  45.5128720  71.4707440  26.0594630  45.1842080  70.6559200  25.6796360
  46.4611020  71.4277250  25.9360320  47.9663330  87.2419480  23.0332200
  47.5066300  87.9935290  22.6590220  47.3375790  86.5225950  22.9747000
  34.7913950  83.3362720  25.4230920  34.0648010  82.7168010  25.3556870
  34.8523100  83.7303330  24.5529000  38.3959050  85.5507720  22.2080330
  38.9124070  84.9395080  21.6828590  39.0456430  86.0536500  22.6991340
  41.1354550  86.4416210  23.0349310  41.4232360  86.1870510  22.1582320
  41.6477770  85.8893570  23.6254880  42.3531560  70.1806410  23.6145820
  41.5703350  70.6551910  23.8942580  42.0594490  69.2761240  23.5059000
  46.9052630  70.8829510  21.6594910  47.3460720  70.8274610  20.8116510
  46.6360220  71.7987520  21.7305090  48.7691200  70.5144750  19.6703730
  48.7079600  69.5705970  19.5234750  49.5483230  70.6224840  20.2157190
  33.0743950  86.6537110  18.6327680  32.9065990  86.0207790  19.3309570
  32.2078460  86.8596510  18.2821870  33.6971970  70.4853890  16.1359540
  34.4551330  70.5982770  15.5623570  33.2349140  71.3223090  16.0902970
  40.2385780  72.5993160  19.1261850  39.4260290  72.2250050  18.7857730
  40.7427420  71.8438240  19.4283040  44.7410760  69.2635610  20.3644920
  45.3440130  69.8355820  20.8393440  44.0003750  69.8275050  20.1418820
  47.8845360  69.6657170  15.6385200  48.0795990  70.5640620  15.9052630
  47.0975230  69.4344250  16.1318150  34.6806650  85.3470340  16.0777820
  34.1554270  85.7278370  15.3739780  34.6051230  85.9721110  16.7987530
  36.0697120  71.0117940  14.6761510  36.5989880  70.2247740  14.5469460
  36.7025440  71.6909130  14.9097040  38.2634960  70.7493080  17.7306900
  37.6337700  70.0480390  17.8977030  37.7240100  71.5097210  17.5140060
  41.2026910  87.3632310  30.4017510  42.1294220  87.1276580  30.4453470
  41.1877340  88.1904310  29.9203540  49.4371970  86.9057880  17.3991760
  49.6124160  86.2195620  16.7552680  48.7393540  87.4304930  17.0068430
  37.2799620  87.2952720  14.9527070  38.0118440  87.0112000  14.4050960
  37.5393290  87.0566000  15.8426450  36.4414410  83.4117450  14.9573400
  35.8123290  83.8802550  15.5059230  36.5562240  82.5666670  15.3919590
  44.9905980  69.4430640  30.7439860  44.8771430  69.7625250  31.6391380
  45.8075720  69.8443150  30.4477140  47.7704470  86.5902170  30.2258550
  48.5629790  86.0951400  30.0184510  48.0637620  87.2692310  30.8334160
  42.0282170  79.2402130   2.9883870  41.2524270  78.7602570   3.2782440
  42.6795100  78.5607780   2.8140030  36.0448000  79.5521940   3.8659630
  35.2132880  79.2970650   4.2656140  36.6528980  79.6232710   4.6017550
  46.0489600  83.6462320   1.7683000  45.5871130  82.8749560   2.0970170
  46.8615150  83.6728390   2.2735450  36.0249260  83.5862030   4.0617650
  36.3277300  82.6959770   3.8827870  36.7692850  84.1432250   3.8339900
  32.4172960  77.1129480   3.5341720  32.9889070  76.3451680   3.5345360
  32.4174500  77.4118240   2.6248330  41.4691160  81.9159320   2.9954030
  41.3999440  80.9749260   2.8343160  42.2311020  82.0060730   3.5676600
  33.6597830  72.5213840   5.3210650  33.4800670  71.6239590   5.6013410
  33.2577910  73.0685710   5.9957600  42.4996330  74.7229700   3.2222960
  42.8761150  73.8501580   3.1096630  42.4015840  75.0588400   2.3313400
  34.2784500  75.0174340   3.9292990  34.9594610  75.2812710   4.5480390
  33.9632550  74.1775210   4.2631000  38.4709070  76.0641700   3.0165580
  38.9787290  76.5622670   3.6570600  39.0022310  75.2876900   2.8404940
  50.5720000  74.2346890   6.7194930  49.8672170  74.6228600   6.2010040
  50.8377920  74.9297180   7.3215860  36.7545170  70.7040260   7.2829000
  36.7563610  71.2212650   6.4774900  35.9249480  70.2270440   7.2598930
  38.0048020  80.3435440   5.4602500  37.6717400  80.9704360   6.1023570
  38.1814700  80.8697320   4.6804170  46.5181930  74.1580520   2.9278840
  45.8137500  74.4465410   3.5081950  46.8794090  74.9680630   2.5678400
  36.4360500  72.4150220   5.2899450  36.7777310  73.2592270   4.9953320
  35.4976310  72.5633960   5.4064790  37.2167120  82.3116240   7.2751680
  37.8341120  82.9867320   6.9936130  36.3560240  82.7204220   7.1839180
  48.1344710  83.7755650   5.1906320  47.4508230  84.4454760   5.1822990
  48.6739000  83.9736300   4.4251180  49.5868850  73.6035310   3.3188050
  48.6393760  73.6374290   3.4503480  49.9118840  74.4174260   3.7037410
  45.6703450  85.6199780   3.9051500  45.6830610  85.2162070   3.0373760
  45.1178670  86.3947070   3.8012930  45.0688890  80.5229620   5.2334110
  45.4857680  80.3089730   4.3987570  45.7928710  80.7802410   5.8042730
  49.0150990  78.9216840   5.3250350  48.1869620  78.9909930   4.8500480
  49.6101470  79.5071150   4.8566180  45.9793000  75.7086160   6.2705220
  45.5664180  76.5339870   6.5245210  45.2468950  75.1231200   6.0781580
  38.5807490  82.1813620   3.2963100  38.2835780  81.5759090   2.6170880
  39.5307310  82.2190930   3.1852460  36.8254410  75.2689270   4.9122930
  37.3769000  75.3784610   4.1376180  37.3397920  75.6426870   5.6278160
  46.6693100  85.7545490   6.9586200  46.1923660  86.5617680   6.7658810
  45.9854890  85.1023820   7.1112410  37.6725920  81.9195310   9.9470900
  36.7754450  82.1435280  10.1944300  37.6978790  82.0430250   8.9982300
  36.4997140  78.7908630   8.5228270  36.3604910  79.6631430   8.8915670
  35.6178500  78.4481440   8.3776210  38.2977490  84.7330330  10.7313420
  38.2692920  85.1373280   9.8641850  38.1342460  83.8040690  10.5685020
  50.2492310  85.5157430  12.0277590  50.7252030  85.9940320  12.7066670
  50.8699470  85.4474920  11.3023090  32.4515790  80.5606180   4.4399180
  32.5296210  80.6954950   3.4954900  33.0657470  79.8522070   4.6327300
  49.6525560  82.7070280   9.1877600  49.7788620  82.4682160   8.2694780
  49.6946940  81.8754820   9.6599680  43.5142300  86.4098280   7.7572410
  44.0286970  86.3206290   8.5594840  42.6711380  86.7557980   8.0500320
  49.5049570  74.7602740  10.1527340  48.8893840  75.2682410   9.6242800
  49.1845990  73.8601070  10.0953280  32.5075310  81.6020350   6.9793640
  32.6706350  81.1325710   6.1613010  32.9727760  81.0943910   7.6442480
  37.2794080  70.7326110   2.0154210  36.8362230  71.5135650   1.6838730
  37.8379070  71.0556000   2.7225150  41.5663890  73.5994630   7.6189530
  41.1043260  73.8077650   8.4309470  41.1642000  72.7853980   7.3160200
  46.5668400  74.8203580   8.7486190  45.7161990  74.5209330   9.0695260
  46.4070190  75.0645590   7.8370010  43.6618110  76.3205330  10.8484980
  43.9871520  75.4869080  10.5087210  44.4498440  76.8433850  10.9963310
  39.3169980  71.2773440   3.8743810  39.6142310  72.1836270   3.7935830
  39.8655540  70.7892220   3.2603380  39.5107510  76.7545260  10.4095730
  39.4151110  75.8139990  10.2596130  40.3539490  76.9760330  10.0143800
  34.6418050  73.1658930   8.5629510  34.2481440  74.0134140   8.7702290
  33.9536450  72.5285300   8.7538150  41.2163100  73.2493900  11.6326250
  40.5261420  73.0566100  12.2672340  41.9595400  73.5328540  12.1650550
  31.9435100  71.0887390   2.5959590  31.6548150  71.6590250   3.3084570
  32.6880860  70.6091840   2.9590820  43.4926070  77.0892340   4.4680170
  42.7607190  77.5979150   4.8170270  43.0950410  76.2722320   4.1668950
  39.9303460  73.7646540   2.8732660  39.9339520  73.3236490   2.0237200
  40.8254580  74.0863870   2.9804480  35.7805840  73.6473030   1.8326870
  35.4405890  74.1248260   2.5893920  35.0183160  73.1938150   1.4727970
  43.9551980  72.5426020   3.8803110  43.9724720  72.9934670   4.7244960
  43.7067560  71.6431660   4.0936550  47.3822730  69.9558200   9.7189490
  47.7068500  69.2247860  10.2447470  47.4179240  69.6371840   8.8170480
  34.0814290  80.9771780   9.1389450  33.6969080  80.3365450   9.7372410
  34.3926480  81.6807900   9.7084180  40.2311430  77.8248320   4.6198070
  40.5981560  77.3506890   5.3659410  40.0416490  78.6989890   4.9606410
  38.0210800  76.8656960   6.9382280  37.7167870  77.7448940   7.1632640
  38.9757260  76.9256750   6.9739720  47.3080570  80.0683310   3.3275520
  48.0279690  80.5638600   2.9371630  47.1062390  79.3901200   2.6829390
  42.6899370  80.1392370   9.2144520  42.6236680  79.2188040   8.9602110
  42.0604510  80.2367810   9.9289160  34.0774530  77.7059700   8.0853640
  33.7189470  78.3713550   8.6726980  33.7829090  76.8743250   8.4566260
  37.2787650  78.1643940  10.9693190  36.9787790  78.3101120  10.0721010
  38.0498890  77.6049230  10.8766580  42.6216100  82.9612940   8.9648320
  42.6360640  82.0293900   8.7467230  41.9141200  83.0472700   9.6038090
  48.8327310  79.6020280   8.3116900  48.1075500  80.1949060   8.1146290
  49.3602770  79.5943820   7.5130270  42.0550000  84.6030510   6.0588820
  42.6992220  84.8089890   6.7362240  42.4179440  83.8418910   5.6059670
  43.3282080  82.6062860   4.7766270  43.9704310  81.9056020   4.8898440
  43.8531430  83.3861300   4.5963160  45.1019700  83.4057760   7.9802330
  45.4375940  83.9924450   8.6580250  44.1820040  83.2750470   8.2100120
  32.6523100  71.1952940   8.7625740  31.9381620  71.3949860   9.3678350
  33.0718140  70.4192510   9.1340540  32.9395690  85.1833200   9.7492270
  33.0486810  84.2427940   9.6087660  32.2876250  85.4487950   9.1006000
  40.9308280  83.4549090  11.1490390  40.6105150  82.7358330  11.6936080
  40.2566640  84.1304160  11.2226450  44.1461880  73.6875250   6.5127190
  44.5142700  72.8670460   6.8406760  43.2860080  73.7477140   6.9282840
  41.1063870  76.3414840   6.7365160  41.6049120  76.8160660   7.4017010
  41.2486820  75.4178360   6.9435190  48.3130730  72.5582800   7.5793550
  47.8104330  73.2988200   7.9187360  49.1287390  72.9466800   7.2630340
  48.6078320  84.9724830   2.7009170  48.7325740  85.7956000   3.1732980
  49.4743880  84.7615560   2.3533320  36.0795850  87.0656040   2.3726300
  36.8158330  86.5171500   2.6434870  36.4636770  87.9312050   2.2332290
  35.0854130  86.2502110  11.5611880  35.8866860  86.5714160  11.9747280
  34.5705950  85.8897690  12.2831790  43.9218760  82.3581980  11.5087290
  43.3156920  82.3813580  10.7683040  43.6172870  81.6265020  12.0454540
  45.3519130  86.0862270  10.1196700  46.3040880  86.0020290  10.0696940
  45.2047350  86.7503980  10.7930490  32.8051940  78.7375570  10.5047930
  33.3090960  78.1582850  11.0764160  32.0659360  79.0215800  11.0424300
  39.8589880  80.1446560  10.0383450  39.0935550  80.7131560   9.9538120
  40.0405840  79.8522770   9.1451680  47.0013230  81.8751890  10.5958470
  47.7422700  82.2127650  10.0925930  46.2385910  82.0443950  10.0428240
  34.8375020  76.8805160  11.3998000  34.8780360  76.5819030  12.3083230
  35.6920520  77.2812770  11.2405520  36.7780830  75.4597260   9.3672490
  36.2477290  74.9688210   8.7395830  37.4468900  75.8881460   8.8330420
  45.6758890  79.9266720   9.1313680  46.0899910  80.0811800   9.9804100
  44.7409890  80.0521940   9.2939460  46.1481060  77.2662880  11.1352830
  46.7301830  76.5115200  11.0473310  46.3242830  77.7970320  10.3584310
  37.2653130  72.4259630   9.4469780  37.1710000  71.8080380   8.7220650
  36.6850520  73.1525920   9.2199690  40.0314570  70.9832870   6.4797170
  39.5831870  71.0057130   5.6342720  39.3979770  70.5851890   7.0767470
  40.4374120  79.8787200   7.1009610  40.8562230  80.7219930   6.9285850
  39.5182750  80.0159240   6.8716390  42.7738020  77.6103380   8.4847450
  42.8934230  77.0144520   9.2242290  43.6332020  77.6473070   8.0648750
  45.1125920  78.1640570   7.0609960  44.5861140  78.6883190   6.4575100
  45.4557260  78.7967960   7.6919690  38.2881540  86.1840210   8.2167340
  37.7502630  86.9086270   7.8976040  38.5415500  85.7070550   7.4264680
  39.5406790  74.1524730   9.7423270  40.1306480  73.8440580  10.4301090
  38.7227030  73.6804480   9.8983170  44.3600220  73.7690540   9.9756290
  43.6715740  73.1072080   9.9106280  45.0806240  73.3228810  10.4204750
  41.1443750  87.4191420   8.4753990  41.0702450  88.3226560   8.7826360
  40.2422590  87.1003320   8.4476060  32.5471040  84.7466010   1.7787610
  32.8774050  83.8787070   1.5466250  32.9762040  84.9524530   2.6092570
  33.0361250  85.6136600   4.5169240  32.5992240  85.7937400   5.3493390
  33.6038930  86.3711220   4.3750960  48.6723430  85.1153600   8.8046550
  48.0725420  85.1746160   8.0610470  48.8017330  84.1758580   8.9343400
  47.3575070  81.8405580   6.9022710  46.5434910  82.2702740   7.1648500
  47.7649270  82.4523990   6.2891760  33.9061610  78.5109400   5.4161460
  34.2734650  78.4236800   6.2957480  33.3372430  77.7475950   5.3168320
  48.7065470  76.9793780   8.4291930  48.4751560  76.7506530   7.5289880
  48.9670020  77.8993330   8.3836820  33.4577610  75.4218490   9.3219880
  32.5633660  75.3885250   9.6613590  33.9975160  75.6205280  10.0871130
  47.1453540  72.2050210  11.2071630  48.0223720  72.2133610  11.5905630
  47.1574380  71.4681050  10.5963980  48.5916810  76.0579750   2.0959650
  49.1154290  75.5642400   1.4649820  49.1776230  76.1930110   2.8407220
  48.7706530  76.1419620   5.6179200  47.8209240  76.1083160   5.7324190
  48.9519540  77.0519730   5.3828970  33.9617320  69.6966820   3.6703100
  34.6093510  69.1464200   3.2298260  34.3819160  69.9509970   4.4918910
  47.8569660  69.8908180   7.0272740  48.4941880  70.5042320   7.3931930
  48.0044550  69.9268840   6.0821970  33.7149320  69.8522490   6.4128420
  33.3664140  70.3086310   7.1786600  33.3837020  68.9579620   6.4950850
  35.3213690  83.0242090  10.5781610  35.2783320  82.6535000  11.4596070
  35.4524700  83.9619660  10.7183430  39.0219720  84.5801680   6.1791330
  38.7811080  84.8476240   5.2921850  39.9622360  84.7507410   6.2342190
  41.2274140  71.0434370   9.9347840  41.1663030  71.6356200  10.6843250
  42.1674520  70.9360330   9.7898100  43.8648700  70.7004430   9.5740130
  44.4789110  71.0183720   8.9121210  44.4098260  70.2153020  10.1935990
  50.2823880  86.5996060   6.9801970  49.7882160  86.9964930   6.2629100
  49.6737170  85.9745270   7.3739250  34.3869960  69.3798690   9.6879190
  34.9352950  69.1986740   8.9245300  34.4525270  68.5892800  10.2235500
  35.1601720  85.9704340   7.6979390  34.5662040  85.8389040   8.4369430
  35.1525560  85.1342480   7.2321490  44.6056740  69.2636570   5.9009420
  43.7316580  69.5971680   5.6982350  44.4967490  68.7909750   6.7261290
  45.5128720  71.4707440   7.2851140  45.1842080  70.6559200   6.9052870
  46.4611020  71.4277250   7.1616830  47.9663330  87.2419480   4.2588710
  47.5066300  87.9935290   3.8846730  47.3375790  86.5225950   4.2003510
  34.7913950  83.3362720   6.6487430  34.0648010  82.7168010   6.5813380
  34.8523100  83.7303330   5.7785510  38.3959050  85.5507720   3.4336840
  38.9124070  84.9395080   2.9085100  39.0456430  86.0536500   3.9247850
  41.1354550  86.4416210   4.2605820  41.4232360  86.1870510   3.3838830
  41.6477770  85.8893570   4.8511390  42.3531560  70.1806410   4.8402330
  41.5703350  70.6551910   5.1199090  42.0594490  69.2761240   4.7315510
  46.9052630  70.8829510   2.8851420  47.3460720  70.8274610   2.0373020
  46.6360220  71.7987520   2.9561600  41.2026910  87.3632310  11.6274020
  42.1294220  87.1276580  11.6709980  41.1877340  88.1904310  11.1460050
  38.3890520  70.0277060  11.3915900  38.1074790  70.5310660  10.6276720
  38.7710220  69.2298810  11.0258030  44.9905980  69.4430640  11.9696370
  44.8771430  69.7625250  12.8647890  45.8075720  69.8443150  11.6733650
  47.7704470  86.5902170  11.4515060  48.5629790  86.0951400  11.2441020
  48.0637620  87.2692310  12.0590670  43.8964130  58.6879620  57.4305070
  43.8158180  57.7734230  57.1596780  43.4828550  59.1846690  56.7244780
  42.0282170  60.4658640  59.3114340  41.2524270  59.9859080  59.6012910
  42.6795100  59.7864290  59.1370500  46.0489600  64.8718830  58.0913470
  45.5871130  64.1006070  58.4200640  46.8615150  64.8984900  58.5965920
  34.4539950  55.7380340  53.9732490  33.5656650  56.0796310  53.8712370
  34.7381140  55.5380660  53.0813320  32.4172960  58.3385990  59.8572190
  32.9889070  57.5708190  59.8575830  32.4174500  58.6374750  58.9478800
  42.2752910  67.1576840  57.7117460  41.6564350  67.6134340  57.1411900
  43.1304690  67.3128300  57.3107160  41.4691160  63.1415830  59.3184500
  41.3999440  62.2005770  59.1573630  42.2311020  63.2317240  59.8907070
  42.4996330  55.9486210  59.5453430  42.8761150  55.0758090  59.4327100
  42.4015840  56.2844910  58.6543870  36.6301340  54.3211840  55.0070870
  36.7368090  55.2215570  55.3139630  35.7193700  54.2729810  54.7165520
  46.2820450  53.4436650  56.4781770  47.1030070  52.9533220  56.5207250
  46.3154530  54.0334310  57.2313610  38.4709070  57.2898210  59.3396050
  38.9787290  57.7879180  59.9801070  39.0022310  56.5133410  59.1635410
  43.1416260  62.0416080  55.1049370  42.5233530  62.5065530  54.5412090
  43.6539510  62.7343560  55.5218880  46.5181930  55.3837030  59.2509310
  45.8137500  55.6721920  59.8312420  46.8794090  56.1937140  58.8908870
  32.5099460  62.7272610  52.4789000  32.1327440  63.2159710  51.7473900
  32.7672530  63.3997890  53.1095530  49.5868850  54.8291820  59.6418520
  48.6393760  54.8630800  59.7733950  49.9118840  55.6430770  60.0267880
  40.1188390  51.1289000  57.9374510  40.4263370  50.5735890  57.2210010
  39.1889090  51.2633460  57.7547500  45.6703450  66.8456290  60.2281970
  45.6830610  66.4418580  59.3604230  45.1178670  67.6203580  60.1243400
  46.9648870  63.5672510  55.3172140  46.8545200  62.6246840  55.4421560
  46.9617120  63.9288150  56.2034900  42.5069150  59.1937830  54.6734630
  41.5798430  59.1275210  54.9023100  42.6593970  60.1317960  54.5589870
  42.4938230  55.4654830  51.6701790  41.5541900  55.6268790  51.7554250
  42.8121490  56.1840510  51.1237780  46.5366440  60.7558130  55.1769880
  45.9178860  60.4177680  54.5296180  46.5190890  60.1117890  55.8849070
  38.1125790  59.7202570  57.4554360  37.7082790  59.0079820  56.9600260
  38.1988910  59.3755810  58.3442400  38.5807490  63.4070130  59.6193570
  38.2835780  62.8015600  58.9401350  39.5307310  63.4447440  59.5082930
  44.7131140  59.9944940  52.1842630  45.1524420  59.1567370  52.0380450
  45.4259560  60.6274340  52.2706770  42.8226520  64.9341010  56.1523870
  43.2622430  65.6765340  55.7379260  42.7613410  65.1767580  57.0762830
  48.2948280  51.2487750  50.4983670  47.9820940  51.3414580  51.3982740
  49.0560750  51.8268780  50.4481100  34.8130420  58.6147550  54.9561010
  34.6928020  59.3409640  54.3442280  34.5031310  57.8450460  54.4788920
  33.6963420  63.4862880  57.1735830  33.2891500  63.6277470  56.3189430
  34.5876430  63.2023040  56.9707040  45.4896700  67.9210130  53.5086880
  45.3297840  67.6313070  54.4068710  45.3243410  67.1450260  52.9732110
  37.9685080  67.7008660  55.2858500  37.7927560  66.7844200  55.0726300
  37.1140820  68.0595950  55.5256300  45.1922830  65.4297690  52.0684880
  44.4987990  65.4274980  51.4087160  45.9345690  65.0057010  51.6379050
  44.7572760  67.0560400  56.1433370  45.2129710  66.2749780  56.4571990
  45.0965280  67.7667220  56.6874550  37.2794080  51.9582620  58.3384680
  36.8362230  52.7392160  58.0069200  37.8379070  52.2812510  59.0455620
  40.3952900  51.5793320  53.2190510  39.7707080  51.5753190  53.9443820
  40.3083020  50.7124280  52.8226480  39.3169980  52.5029950  60.1974280
  39.6142310  53.4092780  60.1166300  39.8655540  52.0148730  59.5833850
  37.0708300  57.0816190  56.0665930  36.8449220  56.8653360  56.9712550
  36.2900830  57.5144650  55.7211900  44.3006060  57.0879560  54.6656580
  43.7014950  57.8115360  54.4820200  44.8485670  57.0256340  53.8833030
  42.9070930  55.7243100  56.6959860  43.3000500  56.0415300  55.8828550
  43.2687780  54.8454980  56.8104380  31.9435100  52.3143900  58.9190060
  31.6548150  52.8846760  59.6315040  32.6880860  51.8348350  59.2821290
  32.1305330  56.2564020  50.1292780  32.0480000  57.1994780  50.2707770
  31.7788390  56.1138930  49.2505130  39.9303460  54.9903050  59.1963130
  39.9339520  54.5493000  58.3467670  40.8254580  55.3120380  59.3034950
  35.7805840  54.8729540  58.1557340  35.4405890  55.3504770  58.9124390
  35.0183160  54.4194660  57.7958440  39.9923610  55.9915130  52.1869890
  40.1136430  55.9501610  53.1355710  39.6072120  56.8539280  52.0316620
  39.0045110  58.3016270  51.5853190  38.4362010  57.8534520  50.9589100
  39.7134110  58.6609050  51.0518340  33.0951920  53.7948520  57.0722010
  32.8098840  53.4304190  57.9100630  33.0330780  53.0628980  56.4585150
  36.5492590  62.2974460  53.8579600  35.7754850  61.7572080  53.6978320
  37.2787220  61.7781070  53.5197360  47.3080570  61.2939820  59.6505990
  48.0279690  61.7895110  59.2602100  47.1062390  60.6157710  59.0059860
  42.7690510  52.6877780  53.7935380  41.9555120  52.1890950  53.7180690
  42.5752460  53.5276030  53.3771730  45.4838900  57.0597430  52.0897540
  46.3718520  57.3714660  51.9148880  45.4543990  56.1869680  51.6978120
  36.5929990  61.9654840  57.4958410  37.1108660  61.1623100  57.4415300
  36.1414010  61.9033980  58.3375240  41.4799490  63.2321120  52.7685710
  41.8215190  63.9763350  52.2729030  40.6512200  63.5452240  53.1310540
  47.7553170  58.3709270  51.5577400  47.6716890  58.8023490  50.7073840
  48.4747360  58.8307620  51.9904220  48.7840420  65.2251530  54.2859530
  48.1416580  64.5707150  54.5603250  48.3971080  65.6306620  53.5100200
  44.3626900  62.5536960  58.1331220  44.7150720  61.9565090  57.4732590
  43.4789230  62.2281190  58.3039470  40.4490180  63.3134650  55.5401630
  41.1361310  63.8603860  55.9209220  39.6622600  63.8575380  55.5751240
  32.5882580  58.9307470  51.0318710  33.4577430  59.2132270  51.3154630
  32.0972900  59.7443340  50.9167520  39.7517390  60.3180680  55.1526990
  40.2080170  61.1285930  55.3787180  39.4005600  60.0003820  55.9845480
  35.6529170  50.6618330  55.6249510  35.5243800  50.6536230  56.5734430
  34.8291190  51.0001420  55.2740520  47.1737800  64.1167990  50.8235880
  46.9475380  63.3998430  51.4160520  46.7834000  63.8680430  49.9857630
  32.9553830  68.1434850  51.5980340  33.3151470  68.7424190  50.9437610
  32.8146170  68.6894740  52.3715370  46.7554050  62.0339930  52.4850040
  46.4675750  62.4952620  53.2727920  47.5506220  61.5737700  52.7534260
  38.9722450  65.5266050  52.4154010  38.9632550  66.2595740  51.7998520
  38.0520810  65.2797630  52.5080970  34.5729090  60.7480940  53.1600770
  33.9657040  61.4879840  53.1696070  35.0478440  60.8380300  52.3338970
  47.5123910  53.8688700  53.6445220  46.8837070  53.9734370  52.9303450
  47.0175830  54.0885480  54.4339100  41.9582050  65.5894290  51.0779200
  42.0594030  65.3858280  50.1481180  41.0583790  65.3352570  51.2826980
  39.4807940  56.1474650  55.0603100  38.7724090  56.6160990  55.5016710
  39.7652420  55.4896660  55.6948290  43.5123370  52.8725310  56.4998890
  43.3891150  52.8911440  55.5508400  44.4607930  52.9204250  56.6197290
  40.6000160  68.1080610  55.7726870  40.8541660  68.0702000  54.8506240
  39.6512640  67.9813940  55.7655120  37.6842960  54.4559730  52.4353810
  38.5333490  54.8929880  52.3694000  37.3174230  54.7679990  53.2625870
  46.6052740  59.0272490  57.3485380  45.6642880  59.0422720  57.5233070
  46.9196810  58.2408450  57.7945680  36.5834380  60.7092090  50.9089340
  37.3497650  60.5973450  51.4714770  36.6609070  60.0130060  50.2566110
  35.2781140  58.1417160  51.5922230  35.3584730  57.1944670  51.7039630
  36.1700890  58.4724040  51.6982890  48.6078320  66.1981340  59.0239640
  48.7325740  67.0212510  59.4963450  49.4743880  65.9872070  58.6763790
  36.0795850  68.2912550  58.6956770  36.8158330  67.7428010  58.9665340
  36.4636770  69.1568560  58.5562760  32.9641330  64.3586120  54.5698280
  32.0381110  64.6007260  54.5603690  33.4297760  65.1860380  54.4483030
  39.1898160  67.4642860  50.5182340  39.9826770  67.7531690  50.0664130
  38.6702510  67.0335030  49.8394820  48.2428330  66.6912990  51.9419080
  47.9569840  66.2778130  51.1273260  48.0447880  67.6200700  51.8219600
  39.7075560  62.6846270  50.3824690  39.6026200  62.0698620  51.1086070
  39.5399780  62.1612160  49.5987700  42.9478290  61.7466300  50.9866680
  42.3988390  62.1935600  51.6309420  43.5697550  61.2415550  51.5104350
  38.6153410  60.7057220  52.8831980  39.0369830  60.5397090  53.7263370
  38.7404250  59.8957450  52.3887120  41.1281050  59.7294830  50.1309080
  41.6486710  59.0143850  49.7650230  41.7749450  60.3680700  50.4309590
  44.9900620  51.5898680  52.3577020  45.2702910  50.7466580  52.7136440
  44.2166350  51.8221790  52.8715770  36.3095110  53.8791070  49.8168020
  36.6121010  53.8858500  48.9087170  37.0489700  53.5288930  50.3135680
  39.5280040  52.8225690  50.8024220  39.1802040  52.1449680  50.2226670
  39.7292810  52.3615200  51.6167610  41.6929080  67.8106440  52.4210820
  42.5879870  68.1491410  52.4429580  41.7246710  67.0885850  51.7935100
  35.3325240  63.1833490  50.6497820  35.7700110  63.7263160  51.3055400
  35.8172970  62.3580440  50.6594160  32.5471040  65.9722520  58.1018080
  32.8774050  65.1043580  57.8696720  32.9762040  66.1781040  58.9323040
  37.1432960  64.3031530  55.7620050  36.8428500  64.1796500  56.6623960
  37.0370450  63.4440120  55.3535780  49.9124880  64.0827930  50.4646730
  49.0817840  64.1504580  50.9353960  50.0896710  64.9732050  50.1613590
  49.3681340  60.8275410  52.9680930  50.1300250  61.3972060  53.0740620
  49.3835710  60.2602610  53.7389240  32.8685680  59.3513340  57.1988590
  32.2134520  59.0824980  56.5548290  33.7063630  59.2417820  56.7490570
  50.3741310  61.6825510  57.8122860  50.7450140  60.8992830  57.4058830
  51.0143240  62.3714610  57.6340160  49.4200510  61.1209780  50.1253450
  49.6949350  62.0288660  49.9972670  49.2311250  61.0572310  51.0615440
  45.8176120  54.1454630  51.4207080  46.2361000  53.9585610  50.5803740
  45.5112180  53.2933680  51.7310010  49.3165850  59.0578770  55.1182880
  48.9409450  58.2906700  54.6864170  48.5868970  59.4401470  55.6057810
  32.0823760  56.5612270  53.1413920  31.1787840  56.8242470  52.9665580
  32.5664380  56.8323440  52.3613880  48.5916810  57.2836260  58.4190120
  49.1154290  56.7898910  57.7880290  49.1776230  57.4186620  59.1637690
  34.6250970  55.6177810  51.0508300  35.3342670  55.1961030  50.5655580
  33.9090910  55.6853040  50.4191650  34.2725130  51.6717140  50.0910950
  34.9953260  52.2126080  50.4092170  34.5449650  51.3980560  49.2152490
  48.0816780  56.5409610  54.3582530  48.5775900  56.3080480  55.1431410
  47.8832850  55.7021450  53.9420170  49.5103940  55.1770560  56.8920210
  49.4003220  55.0226600  57.8302480  50.2711530  54.6491500  56.6495620
  50.3994210  53.0078480  50.1326350  51.3243520  52.8759660  49.9244640
  50.3770000  53.0871300  51.0862800  50.4732700  53.7789140  52.7583060
  49.6784200  53.7134260  53.2875970  50.6775980  54.7139780  52.7468410
  47.4151120  67.8180690  56.7521450  48.0110190  67.4965260  56.0755870
  47.6729270  67.3452510  57.5434720  38.3959050  66.7764230  59.7567310
  38.9124070  66.1651590  59.2315570  39.0456430  67.2793010  60.2478320
  46.9052630  52.1086020  59.2081890  47.3460720  52.0531120  58.3603490
  46.6360220  53.0244030  59.2792070  48.7691200  51.7401260  57.2190710
  48.7079600  50.7962480  57.0721730  49.5483230  51.8481350  57.7644170
  33.0743950  67.8793620  56.1814660  32.9065990  67.2464300  56.8796550
  32.2078460  68.0853020  55.8308850  33.6971970  51.7110400  53.6846520
  34.4551330  51.8239280  53.1110550  33.2349140  52.5479600  53.6389950
  40.2385780  53.8249670  56.6748830  39.4260290  53.4506560  56.3344710
  40.7427420  53.0694750  56.9770020  44.7410760  50.4892120  57.9131900
  45.3440130  51.0612330  58.3880420  44.0003750  51.0531560  57.6905800
  47.8845360  50.8913680  53.1872180  48.0795990  51.7897130  53.4539610
  47.0975230  50.6600760  53.6805130  34.6806650  66.5726850  53.6264800
  34.1554270  66.9534880  52.9226760  34.6051230  67.1977620  54.3474510
  36.0697120  52.2374450  52.2248490  36.5989880  51.4504250  52.0956440
  36.7025440  52.9165640  52.4584020  38.2634960  51.9749590  55.2793880
  37.6337700  51.2736900  55.4464010  37.7240100  52.7353720  55.0627040
  49.4371970  68.1314390  54.9478740  49.6124160  67.4452130  54.3039660
  48.7393540  68.6561440  54.5555410  37.2799620  68.5209230  52.5014050
  38.0118440  68.2368510  51.9537940  37.5393290  68.2822510  53.3913430
  36.4414410  64.6373960  52.5060380  35.8123290  65.1059060  53.0546210
  36.5562240  63.7923180  52.9406570  32.5099460  62.7272610  33.7045510
  32.1327440  63.2159710  32.9730410  32.7672530  63.3997890  34.3352040
  42.4938230  55.4654830  32.8958300  41.5541900  55.6268790  32.9810760
  42.8121490  56.1840510  32.3494290  38.2977490  65.9586840  48.2800400
  38.2692920  66.3629790  47.4128830  38.1342460  65.0297200  48.1172000
  50.2492310  66.7413940  49.5764570  50.7252030  67.2196830  50.2553650
  50.8699470  66.6731430  48.8510070  49.5049570  55.9859250  47.7014320
  48.8893840  56.4938920  47.1729780  49.1845990  55.0857580  47.6440260
  37.2794080  51.9582620  39.5641190  36.8362230  52.7392160  39.2325710
  37.8379070  52.2812510  40.2712130  37.0708300  57.0816190  37.2922440
  36.8449220  56.8653360  38.1969060  36.2900830  57.5144650  36.9468410
  41.2163100  54.4750410  49.1813230  40.5261420  54.2822610  49.8159320
  41.9595400  54.7585050  49.7137530  39.9923610  55.9915130  33.4126400
  40.1136430  55.9501610  34.3612220  39.6072120  56.8539280  33.2573130
  39.0045110  58.3016270  32.8109700  38.4362010  57.8534520  32.1845610
  39.7134110  58.6609050  32.2774850  47.3822730  51.1814710  47.2676470
  47.7068500  50.4504370  47.7934450  47.4179240  50.8628350  46.3657460
  40.9308280  64.6805600  48.6977370  40.6105150  63.9614840  49.2423060
  40.2566640  65.3560670  48.7713430  34.5729090  60.7480940  34.3857280
  33.9657040  61.4879840  34.3952580  35.0478440  60.8380300  33.5595480
  35.2781140  58.1417160  32.8178740  35.3584730  57.1944670  32.9296140
  36.1700890  58.4724040  32.9239400  32.9641330  64.3586120  35.7954790
  32.0381110  64.6007260  35.7860200  33.4297760  65.1860380  35.6739540
  35.0854130  67.4758620  49.1098860  35.8866860  67.7970670  49.5234260
  34.5705950  67.1154200  49.8318770  43.9218760  63.5838490  49.0574270
  43.3156920  63.6070090  48.3170020  43.6172870  62.8521530  49.5941520
  38.6153410  60.7057220  34.1088490  39.0369830  60.5397090  34.9519880
  38.7404250  59.8957450  33.6143630  46.1481060  58.4919390  48.6839810
  46.7301830  57.7371710  48.5960290  46.3242830  59.0226830  47.9071290
  37.5112310  56.7790450  31.0546650  37.3101370  55.9157810  31.4159990
  37.3404360  56.6923810  30.1168250  44.3600220  54.9947050  47.5243270
  43.6715740  54.3328590  47.4593260  45.0806240  54.5485320  47.9691730
  48.7065470  58.2050290  45.9778910  48.4751560  57.9763040  45.0776860
  48.9670020  59.1249840  45.9323800  47.1453540  53.4306720  48.7558610
  48.0223720  53.4390120  49.1392610  47.1574380  52.6937560  48.1450960
  47.4151120  67.8180690  37.9777960  48.0110190  67.4965260  37.3012380
  47.6729270  67.3452510  38.7691230  43.8648700  51.9260940  47.1227110
  44.4789110  52.2440230  46.4608190  44.4098260  51.4409530  47.7422970
  38.2634960  51.9749590  36.5050390  37.6337700  51.2736900  36.6720520
  37.7240100  52.7353720  36.2883550  41.2026910  68.5888820  49.1761000
  42.1294220  68.3533090  49.2196960  41.1877340  69.4160820  48.6947030
  49.4371970  68.1314390  36.1735250  49.6124160  67.4452130  35.5296170
  48.7393540  68.6561440  35.7811920  44.9905980  50.6687150  49.5183350
  44.8771430  50.9881760  50.4134870  45.8075720  51.0699660  49.2220630
  47.7704470  67.8158680  49.0002040  48.5629790  67.3207910  48.7928000
  48.0637620  68.4948820  49.6077650  34.4539950  55.7380340  16.4245510
  33.5656650  56.0796310  16.3225390  34.7381140  55.5380660  15.5326340
  42.2752910  67.1576840  20.1630480  41.6564350  67.6134340  19.5924920
  43.1304690  67.3128300  19.7620180  36.6301340  54.3211840  17.4583890
  36.7368090  55.2215570  17.7652650  35.7193700  54.2729810  17.1678540
  46.2820450  53.4436650  18.9294790  47.1030070  52.9533220  18.9720270
  46.3154530  54.0334310  19.6826630  43.1416260  62.0416080  17.5562390
  42.5233530  62.5065530  16.9925110  43.6539510  62.7343560  17.9731900
  32.5099460  62.7272610  14.9302020  32.1327440  63.2159710  14.1986920
  32.7672530  63.3997890  15.5608550  40.1188390  51.1289000  20.3887530
  40.4263370  50.5735890  19.6723030  39.1889090  51.2633460  20.2060520
  46.9648870  63.5672510  17.7685160  46.8545200  62.6246840  17.8934580
  46.9617120  63.9288150  18.6547920  42.5069150  59.1937830  17.1247650
  41.5798430  59.1275210  17.3536120  42.6593970  60.1317960  17.0102890
  42.4938230  55.4654830  14.1214810  41.5541900  55.6268790  14.2067270
  42.8121490  56.1840510  13.5750800  46.5366440  60.7558130  17.6282900
  45.9178860  60.4177680  16.9809200  46.5190890  60.1117890  18.3362090
  44.7131140  59.9944940  14.6355650  45.1524420  59.1567370  14.4893470
  45.4259560  60.6274340  14.7219790  42.8226520  64.9341010  18.6036890
  43.2622430  65.6765340  18.1892280  42.7613410  65.1767580  19.5275850
  48.2948280  51.2487750  12.9496690  47.9820940  51.3414580  13.8495760
  49.0560750  51.8268780  12.8994120  34.8130420  58.6147550  17.4074030
  34.6928020  59.3409640  16.7955300  34.5031310  57.8450460  16.9301940
  33.6963420  63.4862880  19.6248850  33.2891500  63.6277470  18.7702450
  34.5876430  63.2023040  19.4220060  45.4896700  67.9210130  15.9599900
  45.3297840  67.6313070  16.8581730  45.3243410  67.1450260  15.4245130
  37.9685080  67.7008660  17.7371520  37.7927560  66.7844200  17.5239320
  37.1140820  68.0595950  17.9769320  45.1922830  65.4297690  14.5197900
  44.4987990  65.4274980  13.8600180  45.9345690  65.0057010  14.0892070
  44.7572760  67.0560400  18.5946390  45.2129710  66.2749780  18.9085010
  45.0965280  67.7667220  19.1387570  49.5049570  55.9859250  28.9270830
  48.8893840  56.4938920  28.3986290  49.1845990  55.0857580  28.8696770
  46.5668400  56.0460090  27.5229680  45.7161990  55.7465840  27.8438750
  46.4070190  56.2902100  26.6113500  43.6618110  57.5461840  29.6228470
  43.9871520  56.7125590  29.2830700  44.4498440  58.0690360  29.7706800
  40.3952900  51.5793320  15.6703530  39.7707080  51.5753190  16.3956840
  40.3083020  50.7124280  15.2739500  37.0708300  57.0816190  18.5178950
  36.8449220  56.8653360  19.4225570  36.2900830  57.5144650  18.1724920
  44.3006060  57.0879560  17.1169600  43.7014950  57.8115360  16.9333220
  44.8485670  57.0256340  16.3346050  41.2163100  54.4750410  30.4069740
  40.5261420  54.2822610  31.0415830  41.9595400  54.7585050  30.9394040
  31.9435100  52.3143900  21.3703080  31.6548150  52.8846760  22.0828060
  32.6880860  51.8348350  21.7334310  32.1305330  56.2564020  12.5805800
  32.0480000  57.1994780  12.7220790  31.7788390  56.1138930  11.7018150
  39.9923610  55.9915130  14.6382910  40.1136430  55.9501610  15.5868730
  39.6072120  56.8539280  14.4829640  39.0045110  58.3016270  14.0366210
  38.4362010  57.8534520  13.4102120  39.7134110  58.6609050  13.5031360
  33.0951920  53.7948520  19.5235030  32.8098840  53.4304190  20.3613650
  33.0330780  53.0628980  18.9098170  36.5492590  62.2974460  16.3092620
  35.7754850  61.7572080  16.1491340  37.2787220  61.7781070  15.9710380
  42.7690510  52.6877780  16.2448400  41.9555120  52.1890950  16.1693710
  42.5752460  53.5276030  15.8284750  45.4838900  57.0597430  14.5410560
  46.3718520  57.3714660  14.3661900  45.4543990  56.1869680  14.1491140
  36.5929990  61.9654840  19.9471430  37.1108660  61.1623100  19.8928320
  36.1414010  61.9033980  20.7888260  41.4799490  63.2321120  15.2198730
  41.8215190  63.9763350  14.7242050  40.6512200  63.5452240  15.5823560
  47.7553170  58.3709270  14.0090420  47.6716890  58.8023490  13.1586860
  48.4747360  58.8307620  14.4417240  48.7840420  65.2251530  16.7372550
  48.1416580  64.5707150  17.0116270  48.3971080  65.6306620  15.9613220
  40.4490180  63.3134650  17.9914650  41.1361310  63.8603860  18.3722240
  39.6622600  63.8575380  18.0264260  32.5882580  58.9307470  13.4831730
  33.4577430  59.2132270  13.7667650  32.0972900  59.7443340  13.3680540
  39.7517390  60.3180680  17.6040010  40.2080170  61.1285930  17.8300200
  39.4005600  60.0003820  18.4358500  35.6529170  50.6618330  18.0762530
  35.5243800  50.6536230  19.0247450  34.8291190  51.0001420  17.7253540
  47.1737800  64.1167990  13.2748900  46.9475380  63.3998430  13.8673540
  46.7834000  63.8680430  12.4370650  32.9553830  68.1434850  14.0493360
  33.3151470  68.7424190  13.3950630  32.8146170  68.6894740  14.8228390
  46.7554050  62.0339930  14.9363060  46.4675750  62.4952620  15.7240940
  47.5506220  61.5737700  15.2047280  38.9722450  65.5266050  14.8667030
  38.9632550  66.2595740  14.2511540  38.0520810  65.2797630  14.9593990
  34.5729090  60.7480940  15.6113790  33.9657040  61.4879840  15.6209090
  35.0478440  60.8380300  14.7851990  47.5123910  53.8688700  16.0958240
  46.8837070  53.9734370  15.3816470  47.0175830  54.0885480  16.8852120
  41.9582050  65.5894290  13.5292220  42.0594030  65.3858280  12.5994200
  41.0583790  65.3352570  13.7340000  39.4807940  56.1474650  17.5116120
  38.7724090  56.6160990  17.9529730  39.7652420  55.4896660  18.1461310
  43.5123370  52.8725310  18.9511910  43.3891150  52.8911440  18.0021420
  44.4607930  52.9204250  19.0710310  40.6000160  68.1080610  18.2239890
  40.8541660  68.0702000  17.3019260  39.6512640  67.9813940  18.2168140
  37.6842960  54.4559730  14.8866830  38.5333490  54.8929880  14.8207020
  37.3174230  54.7679990  15.7138890  36.5834380  60.7092090  13.3602360
  37.3497650  60.5973450  13.9227790  36.6609070  60.0130060  12.7079130
  35.2781140  58.1417160  14.0435250  35.3584730  57.1944670  14.1552650
  36.1700890  58.4724040  14.1495910  36.0795850  68.2912550  21.1469790
  36.8158330  67.7428010  21.4178360  36.4636770  69.1568560  21.0075780
  32.9641330  64.3586120  17.0211300  32.0381110  64.6007260  17.0116710
  33.4297760  65.1860380  16.8996050  39.1898160  67.4642860  12.9695360
  39.9826770  67.7531690  12.5177150  38.6702510  67.0335030  12.2907840
  48.2428330  66.6912990  14.3932100  47.9569840  66.2778130  13.5786280
  48.0447880  67.6200700  14.2732620  39.7075560  62.6846270  12.8337710
  39.6026200  62.0698620  13.5599090  39.5399780  62.1612160  12.0500720
  42.9478290  61.7466300  13.4379700  42.3988390  62.1935600  14.0822440
  43.5697550  61.2415550  13.9617370  38.6153410  60.7057220  15.3345000
  39.0369830  60.5397090  16.1776390  38.7404250  59.8957450  14.8400140
  41.1281050  59.7294830  12.5822100  41.6486710  59.0143850  12.2163250
  41.7749450  60.3680700  12.8822610  37.5112310  56.7790450  12.2803160
  37.3101370  55.9157810  12.6416500  37.3404360  56.6923810  11.3424760
  39.5406790  55.3781240  28.5166760  40.1306480  55.0697090  29.2044580
  38.7227030  54.9060990  28.6726660  44.3600220  54.9947050  28.7499780
  43.6715740  54.3328590  28.6849770  45.0806240  54.5485320  29.1948240
  44.9900620  51.5898680  14.8090040  45.2702910  50.7466580  15.1649460
  44.2166350  51.8221790  15.3228790  36.3095110  53.8791070  12.2681040
  36.6121010  53.8858500  11.3600190  37.0489700  53.5288930  12.7648700
  39.5280040  52.8225690  13.2537240  39.1802040  52.1449680  12.6739690
  39.7292810  52.3615200  14.0680630  41.6929080  67.8106440  14.8723840
  42.5879870  68.1491410  14.8942600  41.7246710  67.0885850  14.2448120
  35.3325240  63.1833490  13.1010840  35.7700110  63.7263160  13.7568420
  35.8172970  62.3580440  13.1107180  37.1432960  64.3031530  18.2133070
  36.8428500  64.1796500  19.1136980  37.0370450  63.4440120  17.8048800
  49.9124880  64.0827930  12.9159750  49.0817840  64.1504580  13.3866980
  50.0896710  64.9732050  12.6126610  49.3681340  60.8275410  15.4193950
  50.1300250  61.3972060  15.5253640  49.3835710  60.2602610  16.1902260
  32.8685680  59.3513340  19.6501610  32.2134520  59.0824980  19.0061310
  33.7063630  59.2417820  19.2003590  49.4200510  61.1209780  12.5766470
  49.6949350  62.0288660  12.4485690  49.2311250  61.0572310  13.5128460
  45.8176120  54.1454630  13.8720100  46.2361000  53.9585610  13.0316760
  45.5112180  53.2933680  14.1823030  49.3165850  59.0578770  17.5695900
  48.9409450  58.2906700  17.1377190  48.5868970  59.4401470  18.0570830
  48.7065470  58.2050290  27.2035420  48.4751560  57.9763040  26.3033370
  48.9670020  59.1249840  27.1580310  32.0823760  56.5612270  15.5926940
  31.1787840  56.8242470  15.4178600  32.5664380  56.8323440  14.8126900
  48.5916810  57.2836260  20.8703140  49.1154290  56.7898910  20.2393310
  49.1776230  57.4186620  21.6150710  48.7706530  57.3676130  24.3922690
  47.8209240  57.3339670  24.5067680  48.9519540  58.2776240  24.1572460
  34.6250970  55.6177810  13.5021320  35.3342670  55.1961030  13.0168600
  33.9090910  55.6853040  12.8704670  34.2725130  51.6717140  12.5423970
  34.9953260  52.2126080  12.8605190  34.5449650  51.3980560  11.6665510
  48.0816780  56.5409610  16.8095550  48.5775900  56.3080480  17.5944430
  47.8832850  55.7021450  16.3933190  50.3994210  53.0078480  12.5839370
  51.3243520  52.8759660  12.3757660  50.3770000  53.0871300  13.5375820
  50.4732700  53.7789140  15.2096080  49.6784200  53.7134260  15.7388990
  50.6775980  54.7139780  15.1981430  47.4151120  67.8180690  19.2034470
  48.0110190  67.4965260  18.5268890  47.6729270  67.3452510  19.9947740
  38.3959050  66.7764230  22.2080330  38.9124070  66.1651590  21.6828590
  39.0456430  67.2793010  22.6991340  41.1354550  67.6672720  23.0349310
  41.4232360  67.4127020  22.1582320  41.6477770  67.1150080  23.6254880
  33.0743950  67.8793620  18.6327680  32.9065990  67.2464300  19.3309570
  32.2078460  68.0853020  18.2821870  33.6971970  51.7110400  16.1359540
  34.4551330  51.8239280  15.5623570  33.2349140  52.5479600  16.0902970
  44.7410760  50.4892120  20.3644920  45.3440130  51.0612330  20.8393440
  44.0003750  51.0531560  20.1418820  47.8845360  50.8913680  15.6385200
  48.0795990  51.7897130  15.9052630  47.0975230  50.6600760  16.1318150
  34.6806650  66.5726850  16.0777820  34.1554270  66.9534880  15.3739780
  34.6051230  67.1977620  16.7987530  36.0697120  52.2374450  14.6761510
  36.5989880  51.4504250  14.5469460  36.7025440  52.9165640  14.9097040
  38.2634960  51.9749590  17.7306900  37.6337700  51.2736900  17.8977030
  37.7240100  52.7353720  17.5140060  49.4371970  68.1314390  17.3991760
  49.6124160  67.4452130  16.7552680  48.7393540  68.6561440  17.0068430
  37.2799620  68.5209230  14.9527070  38.0118440  68.2368510  14.4050960
  37.5393290  68.2822510  15.8426450  36.4414410  64.6373960  14.9573400
  35.8123290  65.1059060  15.5059230  36.5562240  63.7923180  15.3919590
  42.0282170  60.4658640   2.9883870  41.2524270  59.9859080   3.2782440
  42.6795100  59.7864290   2.8140030  36.0448000  60.7778450   3.8659630
  35.2132880  60.5227160   4.2656140  36.6528980  60.8489220   4.6017550
  46.0489600  64.8718830   1.7683000  45.5871130  64.1006070   2.0970170
  46.8615150  64.8984900   2.2735450  36.0249260  64.8118540   4.0617650
  36.3277300  63.9216280   3.8827870  36.7692850  65.3688760   3.8339900
  32.4172960  58.3385990   3.5341720  32.9889070  57.5708190   3.5345360
  32.4174500  58.6374750   2.6248330  41.4691160  63.1415830   2.9954030
  41.3999440  62.2005770   2.8343160  42.2311020  63.2317240   3.5676600
  33.6597830  53.7470350   5.3210650  33.4800670  52.8496100   5.6013410
  33.2577910  54.2942220   5.9957600  42.4996330  55.9486210   3.2222960
  42.8761150  55.0758090   3.1096630  42.4015840  56.2844910   2.3313400
  34.2784500  56.2430850   3.9292990  34.9594610  56.5069220   4.5480390
  33.9632550  55.4031720   4.2631000  38.4709070  57.2898210   3.0165580
  38.9787290  57.7879180   3.6570600  39.0022310  56.5133410   2.8404940
  50.5720000  55.4603400   6.7194930  49.8672170  55.8485110   6.2010040
  50.8377920  56.1553690   7.3215860  36.7545170  51.9296770   7.2829000
  36.7563610  52.4469160   6.4774900  35.9249480  51.4526950   7.2598930
  38.0048020  61.5691950   5.4602500  37.6717400  62.1960870   6.1023570
  38.1814700  62.0953830   4.6804170  46.5181930  55.3837030   2.9278840
  45.8137500  55.6721920   3.5081950  46.8794090  56.1937140   2.5678400
  36.4360500  53.6406730   5.2899450  36.7777310  54.4848780   4.9953320
  35.4976310  53.7890470   5.4064790  37.2167120  63.5372750   7.2751680
  37.8341120  64.2123830   6.9936130  36.3560240  63.9460730   7.1839180
  48.1344710  65.0012160   5.1906320  47.4508230  65.6711270   5.1822990
  48.6739000  65.1992810   4.4251180  49.5868850  54.8291820   3.3188050
  48.6393760  54.8630800   3.4503480  49.9118840  55.6430770   3.7037410
  45.6703450  66.8456290   3.9051500  45.6830610  66.4418580   3.0373760
  45.1178670  67.6203580   3.8012930  45.0688890  61.7486130   5.2334110
  45.4857680  61.5346240   4.3987570  45.7928710  62.0058920   5.8042730
  49.0150990  60.1473350   5.3250350  48.1869620  60.2166440   4.8500480
  49.6101470  60.7327660   4.8566180  45.9793000  56.9342670   6.2705220
  45.5664180  57.7596380   6.5245210  45.2468950  56.3487710   6.0781580
  38.5807490  63.4070130   3.2963100  38.2835780  62.8015600   2.6170880
  39.5307310  63.4447440   3.1852460  36.8254410  56.4945780   4.9122930
  37.3769000  56.6041120   4.1376180  37.3397920  56.8683380   5.6278160
  46.6693100  66.9802000   6.9586200  46.1923660  67.7874190   6.7658810
  45.9854890  66.3280330   7.1112410  37.6725920  63.1451820   9.9470900
  36.7754450  63.3691790  10.1944300  37.6978790  63.2686760   8.9982300
  36.4997140  60.0165140   8.5228270  36.3604910  60.8887940   8.8915670
  35.6178500  59.6737950   8.3776210  38.2977490  65.9586840  10.7313420
  38.2692920  66.3629790   9.8641850  38.1342460  65.0297200  10.5685020
  50.2492310  66.7413940  12.0277590  50.7252030  67.2196830  12.7066670
  50.8699470  66.6731430  11.3023090  32.4515790  61.7862690   4.4399180
  32.5296210  61.9211460   3.4954900  33.0657470  61.0778580   4.6327300
  49.6525560  63.9326790   9.1877600  49.7788620  63.6938670   8.2694780
  49.6946940  63.1011330   9.6599680  43.5142300  67.6354790   7.7572410
  44.0286970  67.5462800   8.5594840  42.6711380  67.9814490   8.0500320
  49.5049570  55.9859250  10.1527340  48.8893840  56.4938920   9.6242800
  49.1845990  55.0857580  10.0953280  32.5075310  62.8276860   6.9793640
  32.6706350  62.3582220   6.1613010  32.9727760  62.3200420   7.6442480
  37.2794080  51.9582620   2.0154210  36.8362230  52.7392160   1.6838730
  37.8379070  52.2812510   2.7225150  41.5663890  54.8251140   7.6189530
  41.1043260  55.0334160   8.4309470  41.1642000  54.0110490   7.3160200
  46.5668400  56.0460090   8.7486190  45.7161990  55.7465840   9.0695260
  46.4070190  56.2902100   7.8370010  43.6618110  57.5461840  10.8484980
  43.9871520  56.7125590  10.5087210  44.4498440  58.0690360  10.9963310
  39.3169980  52.5029950   3.8743810  39.6142310  53.4092780   3.7935830
  39.8655540  52.0148730   3.2603380  39.5107510  57.9801770  10.4095730
  39.4151110  57.0396500  10.2596130  40.3539490  58.2016840  10.0143800
  34.6418050  54.3915440   8.5629510  34.2481440  55.2390650   8.7702290
  33.9536450  53.7541810   8.7538150  41.2163100  54.4750410  11.6326250
  40.5261420  54.2822610  12.2672340  41.9595400  54.7585050  12.1650550
  31.9435100  52.3143900   2.5959590  31.6548150  52.8846760   3.3084570
  32.6880860  51.8348350   2.9590820  43.4926070  58.3148850   4.4680170
  42.7607190  58.8235660   4.8170270  43.0950410  57.4978830   4.1668950
  39.9303460  54.9903050   2.8732660  39.9339520  54.5493000   2.0237200
  40.8254580  55.3120380   2.9804480  35.7805840  54.8729540   1.8326870
  35.4405890  55.3504770   2.5893920  35.0183160  54.4194660   1.4727970
  43.9551980  53.7682530   3.8803110  43.9724720  54.2191180   4.7244960
  43.7067560  52.8688170   4.0936550  47.3822730  51.1814710   9.7189490
  47.7068500  50.4504370  10.2447470  47.4179240  50.8628350   8.8170480
  34.0814290  62.2028290   9.1389450  33.6969080  61.5621960   9.7372410
  34.3926480  62.9064410   9.7084180  40.2311430  59.0504830   4.6198070
  40.5981560  58.5763400   5.3659410  40.0416490  59.9246400   4.9606410
  38.0210800  58.0913470   6.9382280  37.7167870  58.9705450   7.1632640
  38.9757260  58.1513260   6.9739720  47.3080570  61.2939820   3.3275520
  48.0279690  61.7895110   2.9371630  47.1062390  60.6157710   2.6829390
  42.6899370  61.3648880   9.2144520  42.6236680  60.4444550   8.9602110
  42.0604510  61.4624320   9.9289160  34.0774530  58.9316210   8.0853640
  33.7189470  59.5970060   8.6726980  33.7829090  58.0999760   8.4566260
  37.2787650  59.3900450  10.9693190  36.9787790  59.5357630  10.0721010
  38.0498890  58.8305740  10.8766580  42.6216100  64.1869450   8.9648320
  42.6360640  63.2550410   8.7467230  41.9141200  64.2729210   9.6038090
  48.8327310  60.8276790   8.3116900  48.1075500  61.4205570   8.1146290
  49.3602770  60.8200330   7.5130270  42.0550000  65.8287020   6.0588820
  42.6992220  66.0346400   6.7362240  42.4179440  65.0675420   5.6059670
  43.3282080  63.8319370   4.7766270  43.9704310  63.1312530   4.8898440
  43.8531430  64.6117810   4.5963160  45.1019700  64.6314270   7.9802330
  45.4375940  65.2180960   8.6580250  44.1820040  64.5006980   8.2100120
  32.6523100  52.4209450   8.7625740  31.9381620  52.6206370   9.3678350
  33.0718140  51.6449020   9.1340540  32.9395690  66.4089710   9.7492270
  33.0486810  65.4684450   9.6087660  32.2876250  66.6744460   9.1006000
  40.9308280  64.6805600  11.1490390  40.6105150  63.9614840  11.6936080
  40.2566640  65.3560670  11.2226450  44.1461880  54.9131760   6.5127190
  44.5142700  54.0926970   6.8406760  43.2860080  54.9733650   6.9282840
  41.1063870  57.5671350   6.7365160  41.6049120  58.0417170   7.4017010
  41.2486820  56.6434870   6.9435190  48.3130730  53.7839310   7.5793550
  47.8104330  54.5244710   7.9187360  49.1287390  54.1723310   7.2630340
  36.0795850  68.2912550   2.3726300  36.8158330  67.7428010   2.6434870
  36.4636770  69.1568560   2.2332290  35.0854130  67.4758620  11.5611880
  35.8866860  67.7970670  11.9747280  34.5705950  67.1154200  12.2831790
  43.9218760  63.5838490  11.5087290  43.3156920  63.6070090  10.7683040
  43.6172870  62.8521530  12.0454540  45.3519130  67.3118780  10.1196700
  46.3040880  67.2276800  10.0696940  45.2047350  67.9760490  10.7930490
  32.8051940  59.9632080  10.5047930  33.3090960  59.3839360  11.0764160
  32.0659360  60.2472310  11.0424300  39.8589880  61.3703070  10.0383450
  39.0935550  61.9388070   9.9538120  40.0405840  61.0779280   9.1451680
  47.0013230  63.1008400  10.5958470  47.7422700  63.4384160  10.0925930
  46.2385910  63.2700460  10.0428240  34.8375020  58.1061670  11.3998000
  34.8780360  57.8075540  12.3083230  35.6920520  58.5069280  11.2405520
  36.7780830  56.6853770   9.3672490  36.2477290  56.1944720   8.7395830
  37.4468900  57.1137970   8.8330420  45.6758890  61.1523230   9.1313680
  46.0899910  61.3068310   9.9804100  44.7409890  61.2778450   9.2939460
  46.1481060  58.4919390  11.1352830  46.7301830  57.7371710  11.0473310
  46.3242830  59.0226830  10.3584310  37.2653130  53.6516140   9.4469780
  37.1710000  53.0336890   8.7220650  36.6850520  54.3782430   9.2199690
  40.0314570  52.2089380   6.4797170  39.5831870  52.2313640   5.6342720
  39.3979770  51.8108400   7.0767470  40.4374120  61.1043710   7.1009610
  40.8562230  61.9476440   6.9285850  39.5182750  61.2415750   6.8716390
  42.7738020  58.8359890   8.4847450  42.8934230  58.2401030   9.2242290
  43.6332020  58.8729580   8.0648750  45.1125920  59.3897080   7.0609960
  44.5861140  59.9139700   6.4575100  45.4557260  60.0224470   7.6919690
  38.2881540  67.4096720   8.2167340  37.7502630  68.1342780   7.8976040
  38.5415500  66.9327060   7.4264680  39.5406790  55.3781240   9.7423270
  40.1306480  55.0697090  10.4301090  38.7227030  54.9060990   9.8983170
  44.3600220  54.9947050   9.9756290  43.6715740  54.3328590   9.9106280
  45.0806240  54.5485320  10.4204750  41.1443750  68.6447930   8.4753990
  41.0702450  69.5483070   8.7826360  40.2422590  68.3259830   8.4476060
  32.5471040  65.9722520   1.7787610  32.8774050  65.1043580   1.5466250
  32.9762040  66.1781040   2.6092570  33.0361250  66.8393110   4.5169240
  32.5992240  67.0193910   5.3493390  33.6038930  67.5967730   4.3750960
  48.6723430  66.3410110   8.8046550  48.0725420  66.4002670   8.0610470
  48.8017330  65.4015090   8.9343400  47.3575070  63.0662090   6.9022710
  46.5434910  63.4959250   7.1648500  47.7649270  63.6780500   6.2891760
  33.9061610  59.7365910   5.4161460  34.2734650  59.6493310   6.2957480
  33.3372430  58.9732460   5.3168320  48.7065470  58.2050290   8.4291930
  48.4751560  57.9763040   7.5289880  48.9670020  59.1249840   8.3836820
  33.4577610  56.6475000   9.3219880  32.5633660  56.6141760   9.6613590
  33.9975160  56.8461790  10.0871130  47.1453540  53.4306720  11.2071630
  48.0223720  53.4390120  11.5905630  47.1574380  52.6937560  10.5963980
  48.5916810  57.2836260   2.0959650  49.1154290  56.7898910   1.4649820
  49.1776230  57.4186620   2.8407220  48.7706530  57.3676130   5.6179200
  47.8209240  57.3339670   5.7324190  48.9519540  58.2776240   5.3828970
  33.9617320  50.9223330   3.6703100  34.6093510  50.3720710   3.2298260
  34.3819160  51.1766480   4.4918910  47.8569660  51.1164690   7.0272740
  48.4941880  51.7298830   7.3931930  48.0044550  51.1525350   6.0821970
  33.7149320  51.0779000   6.4128420  33.3664140  51.5342820   7.1786600
  33.3837020  50.1836130   6.4950850  35.3213690  64.2498600  10.5781610
  35.2783320  63.8791510  11.4596070  35.4524700  65.1876170  10.7183430
  39.0219720  65.8058190   6.1791330  38.7811080  66.0732750   5.2921850
  39.9622360  65.9763920   6.2342190  41.2274140  52.2690880   9.9347840
  41.1663030  52.8612710  10.6843250  42.1674520  52.1616840   9.7898100
  43.8648700  51.9260940   9.5740130  44.4789110  52.2440230   8.9121210
  44.4098260  51.4409530  10.1935990  50.2823880  67.8252570   6.9801970
  49.7882160  68.2221440   6.2629100  49.6737170  67.2001780   7.3739250
  34.3869960  50.6055200   9.6879190  34.9352950  50.4243250   8.9245300
  34.4525270  49.8149310  10.2235500  35.1601720  67.1960850   7.6979390
  34.5662040  67.0645550   8.4369430  35.1525560  66.3598990   7.2321490
  44.6056740  50.4893080   5.9009420  43.7316580  50.8228190   5.6982350
  44.4967490  50.0166260   6.7261290  45.5128720  52.6963950   7.2851140
  45.1842080  51.8815710   6.9052870  46.4611020  52.6533760   7.1616830
  47.9663330  68.4675990   4.2588710  47.5066300  69.2191800   3.8846730
  47.3375790  67.7482460   4.2003510  34.7913950  64.5619230   6.6487430
  34.0648010  63.9424520   6.5813380  34.8523100  64.9559840   5.7785510
  38.3959050  66.7764230   3.4336840  38.9124070  66.1651590   2.9085100
  39.0456430  67.2793010   3.9247850  41.1354550  67.6672720   4.2605820
  41.4232360  67.4127020   3.3838830  41.6477770  67.1150080   4.8511390
  42.3531560  51.4062920   4.8402330  41.5703350  51.8808420   5.1199090
  42.0594490  50.5017750   4.7315510  46.9052630  52.1086020   2.8851420
  47.3460720  52.0531120   2.0373020  46.6360220  53.0244030   2.9561600
  41.2026910  68.5888820  11.6274020  42.1294220  68.3533090  11.6709980
  41.1877340  69.4160820  11.1460050  38.3890520  51.2533570  11.3915900
  38.1074790  51.7567170  10.6276720  38.7710220  50.4555320  11.0258030
  44.9905980  50.6687150  11.9696370  44.8771430  50.9881760  12.8647890
  45.8075720  51.0699660  11.6733650  47.7704470  67.8158680  11.4515060
  48.5629790  67.3207910  11.2441020  48.0637620  68.4948820  12.0590670
  43.8964130  39.9136130  57.4305070  43.8158180  38.9990740  57.1596780
  43.4828550  40.4103200  56.7244780  42.0282170  41.6915150  59.3114340
  41.2524270  41.2115590  59.6012910  42.6795100  41.0120800  59.1370500
  46.0489600  46.0975340  58.0913470  45.5871130  45.3262580  58.4200640
  46.8615150  46.1241410  58.5965920  34.4539950  36.9636850  53.9732490
  33.5656650  37.3052820  53.8712370  34.7381140  36.7637170  53.0813320
  32.4172960  39.5642500  59.8572190  32.9889070  38.7964700  59.8575830
  32.4174500  39.8631260  58.9478800  42.2752910  48.3833350  57.7117460
  41.6564350  48.8390850  57.1411900  43.1304690  48.5384810  57.3107160
  41.4691160  44.3672340  59.3184500  41.3999440  43.4262280  59.1573630
  42.2311020  44.4573750  59.8907070  42.4996330  37.1742720  59.5453430
  42.8761150  36.3014600  59.4327100  42.4015840  37.5101420  58.6543870
  36.6301340  35.5468350  55.0070870  36.7368090  36.4472080  55.3139630
  35.7193700  35.4986320  54.7165520  46.2820450  34.6693160  56.4781770
  47.1030070  34.1789730  56.5207250  46.3154530  35.2590820  57.2313610
  38.4709070  38.5154720  59.3396050  38.9787290  39.0135690  59.9801070
  39.0022310  37.7389920  59.1635410  43.1416260  43.2672590  55.1049370
  42.5233530  43.7322040  54.5412090  43.6539510  43.9600070  55.5218880
  46.5181930  36.6093540  59.2509310  45.8137500  36.8978430  59.8312420
  46.8794090  37.4193650  58.8908870  32.5099460  43.9529120  52.4789000
  32.1327440  44.4416220  51.7473900  32.7672530  44.6254400  53.1095530
  49.5868850  36.0548330  59.6418520  48.6393760  36.0887310  59.7733950
  49.9118840  36.8687280  60.0267880  40.1188390  32.3545510  57.9374510
  40.4263370  31.7992400  57.2210010  39.1889090  32.4889970  57.7547500
  45.6703450  48.0712800  60.2281970  45.6830610  47.6675090  59.3604230
  45.1178670  48.8460090  60.1243400  46.9648870  44.7929020  55.3172140
  46.8545200  43.8503350  55.4421560  46.9617120  45.1544660  56.2034900
  42.5069150  40.4194340  54.6734630  41.5798430  40.3531720  54.9023100
  42.6593970  41.3574470  54.5589870  42.4938230  36.6911340  51.6701790
  41.5541900  36.8525300  51.7554250  42.8121490  37.4097020  51.1237780
  46.5366440  41.9814640  55.1769880  45.9178860  41.6434190  54.5296180
  46.5190890  41.3374400  55.8849070  38.5807490  44.6326640  59.6193570
  38.2835780  44.0272110  58.9401350  39.5307310  44.6703950  59.5082930
  44.7131140  41.2201450  52.1842630  45.1524420  40.3823880  52.0380450
  45.4259560  41.8530850  52.2706770  42.8226520  46.1597520  56.1523870
  43.2622430  46.9021850  55.7379260  42.7613410  46.4024090  57.0762830
  48.2948280  32.4744260  50.4983670  47.9820940  32.5671090  51.3982740
  49.0560750  33.0525290  50.4481100  34.8130420  39.8404060  54.9561010
  34.6928020  40.5666150  54.3442280  34.5031310  39.0706970  54.4788920
  33.6963420  44.7119390  57.1735830  33.2891500  44.8533980  56.3189430
  34.5876430  44.4279550  56.9707040  45.4896700  49.1466640  53.5086880
  45.3297840  48.8569580  54.4068710  45.3243410  48.3706770  52.9732110
  37.9685080  48.9265170  55.2858500  37.7927560  48.0100710  55.0726300
  37.1140820  49.2852460  55.5256300  45.1922830  46.6554200  52.0684880
  44.4987990  46.6531490  51.4087160  45.9345690  46.2313520  51.6379050
  44.7572760  48.2816910  56.1433370  45.2129710  47.5006290  56.4571990
  45.0965280  48.9923730  56.6874550  37.2794080  33.1839130  58.3384680
  36.8362230  33.9648670  58.0069200  37.8379070  33.5069020  59.0455620
  40.3952900  32.8049830  53.2190510  39.7707080  32.8009700  53.9443820
  40.3083020  31.9380790  52.8226480  39.3169980  33.7286460  60.1974280
  39.6142310  34.6349290  60.1166300  39.8655540  33.2405240  59.5833850
  37.0708300  38.3072700  56.0665930  36.8449220  38.0909870  56.9712550
  36.2900830  38.7401160  55.7211900  44.3006060  38.3136070  54.6656580
  43.7014950  39.0371870  54.4820200  44.8485670  38.2512850  53.8833030
  42.9070930  36.9499610  56.6959860  43.3000500  37.2671810  55.8828550
  43.2687780  36.0711490  56.8104380  31.9435100  33.5400410  58.9190060
  31.6548150  34.1103270  59.6315040  32.6880860  33.0604860  59.2821290
  39.9303460  36.2159560  59.1963130  39.9339520  35.7749510  58.3467670
  40.8254580  36.5376890  59.3034950  35.7805840  36.0986050  58.1557340
  35.4405890  36.5761280  58.9124390  35.0183160  35.6451170  57.7958440
  39.9923610  37.2171640  52.1869890  40.1136430  37.1758120  53.1355710
  39.6072120  38.0795790  52.0316620  39.0045110  39.5272780  51.5853190
  38.4362010  39.0791030  50.9589100  39.7134110  39.8865560  51.0518340
  33.0951920  35.0205030  57.0722010  32.8098840  34.6560700  57.9100630
  33.0330780  34.2885490  56.4585150  36.5492590  43.5230970  53.8579600
  35.7754850  42.9828590  53.6978320  37.2787220  43.0037580  53.5197360
  47.3080570  42.5196330  59.6505990  48.0279690  43.0151620  59.2602100
  47.1062390  41.8414220  59.0059860  42.7690510  33.9134290  53.7935380
  41.9555120  33.4147460  53.7180690  42.5752460  34.7532540  53.3771730
  45.4838900  38.2853940  52.0897540  46.3718520  38.5971170  51.9148880
  45.4543990  37.4126190  51.6978120  36.5929990  43.1911350  57.4958410
  37.1108660  42.3879610  57.4415300  36.1414010  43.1290490  58.3375240
  41.4799490  44.4577630  52.7685710  41.8215190  45.2019860  52.2729030
  40.6512200  44.7708750  53.1310540  47.7553170  39.5965780  51.5577400
  47.6716890  40.0280000  50.7073840  48.4747360  40.0564130  51.9904220
  48.7840420  46.4508040  54.2859530  48.1416580  45.7963660  54.5603250
  48.3971080  46.8563130  53.5100200  44.3626900  43.7793470  58.1331220
  44.7150720  43.1821600  57.4732590  43.4789230  43.4537700  58.3039470
  40.4490180  44.5391160  55.5401630  41.1361310  45.0860370  55.9209220
  39.6622600  45.0831890  55.5751240  39.7517390  41.5437190  55.1526990
  40.2080170  42.3542440  55.3787180  39.4005600  41.2260330  55.9845480
  35.6529170  31.8874840  55.6249510  35.5243800  31.8792740  56.5734430
  34.8291190  32.2257930  55.2740520  47.1737800  45.3424500  50.8235880
  46.9475380  44.6254940  51.4160520  46.7834000  45.0936940  49.9857630
  32.9553830  49.3691360  51.5980340  33.3151470  49.9680700  50.9437610
  32.8146170  49.9151250  52.3715370  46.7554050  43.2596440  52.4850040
  46.4675750  43.7209130  53.2727920  47.5506220  42.7994210  52.7534260
  38.9722450  46.7522560  52.4154010  38.9632550  47.4852250  51.7998520
  38.0520810  46.5054140  52.5080970  34.5729090  41.9737450  53.1600770
  33.9657040  42.7136350  53.1696070  35.0478440  42.0636810  52.3338970
  47.5123910  35.0945210  53.6445220  46.8837070  35.1990880  52.9303450
  47.0175830  35.3141990  54.4339100  41.9582050  46.8150800  51.0779200
  42.0594030  46.6114790  50.1481180  41.0583790  46.5609080  51.2826980
  39.4807940  37.3731160  55.0603100  38.7724090  37.8417500  55.5016710
  39.7652420  36.7153170  55.6948290  43.5123370  34.0981820  56.4998890
  43.3891150  34.1167950  55.5508400  44.4607930  34.1460760  56.6197290
  40.6000160  49.3337120  55.7726870  40.8541660  49.2958510  54.8506240
  39.6512640  49.2070450  55.7655120  37.6842960  35.6816240  52.4353810
  38.5333490  36.1186390  52.3694000  37.3174230  35.9936500  53.2625870
  46.6052740  40.2529000  57.3485380  45.6642880  40.2679230  57.5233070
  46.9196810  39.4664960  57.7945680  36.5834380  41.9348600  50.9089340
  37.3497650  41.8229960  51.4714770  36.6609070  41.2386570  50.2566110
  35.2781140  39.3673670  51.5922230  35.3584730  38.4201180  51.7039630
  36.1700890  39.6980550  51.6982890  48.6078320  47.4237850  59.0239640
  48.7325740  48.2469020  59.4963450  49.4743880  47.2128580  58.6763790
  36.0795850  49.5169060  58.6956770  36.8158330  48.9684520  58.9665340
  36.4636770  50.3825070  58.5562760  32.9641330  45.5842630  54.5698280
  32.0381110  45.8263770  54.5603690  33.4297760  46.4116890  54.4483030
  39.1898160  48.6899370  50.5182340  39.9826770  48.9788200  50.0664130
  38.6702510  48.2591540  49.8394820  48.2428330  47.9169500  51.9419080
  47.9569840  47.5034640  51.1273260  48.0447880  48.8457210  51.8219600
  39.7075560  43.9102780  50.3824690  39.6026200  43.2955130  51.1086070
  39.5399780  43.3868670  49.5987700  42.9478290  42.9722810  50.9866680
  42.3988390  43.4192110  51.6309420  43.5697550  42.4672060  51.5104350
  38.6153410  41.9313730  52.8831980  39.0369830  41.7653600  53.7263370
  38.7404250  41.1213960  52.3887120  44.9900620  32.8155190  52.3577020
  45.2702910  31.9723090  52.7136440  44.2166350  33.0478300  52.8715770
  36.3095110  35.1047580  49.8168020  36.6121010  35.1115010  48.9087170
  37.0489700  34.7545440  50.3135680  41.6929080  49.0362950  52.4210820
  42.5879870  49.3747920  52.4429580  41.7246710  48.3142360  51.7935100
  35.3325240  44.4090000  50.6497820  35.7700110  44.9519670  51.3055400
  35.8172970  43.5836950  50.6594160  32.5471040  47.1979030  58.1018080
  32.8774050  46.3300090  57.8696720  32.9762040  47.4037550  58.9323040
  37.1432960  45.5288040  55.7620050  36.8428500  45.4053010  56.6623960
  37.0370450  44.6696630  55.3535780  49.9124880  45.3084440  50.4646730
  49.0817840  45.3761090  50.9353960  50.0896710  46.1988560  50.1613590
  49.3681340  42.0531920  52.9680930  50.1300250  42.6228570  53.0740620
  49.3835710  41.4859120  53.7389240  32.8685680  40.5769850  57.1988590
  32.2134520  40.3081490  56.5548290  33.7063630  40.4674330  56.7490570
  50.3741310  42.9082020  57.8122860  50.7450140  42.1249340  57.4058830
  51.0143240  43.5971120  57.6340160  49.4200510  42.3466290  50.1253450
  49.6949350  43.2545170  49.9972670  49.2311250  42.2828820  51.0615440
  45.8176120  35.3711140  51.4207080  46.2361000  35.1842120  50.5803740
  45.5112180  34.5190190  51.7310010  49.3165850  40.2835280  55.1182880
  48.9409450  39.5163210  54.6864170  48.5868970  40.6657980  55.6057810
  32.0823760  37.7868780  53.1413920  31.1787840  38.0498980  52.9665580
  32.5664380  38.0579950  52.3613880  48.5916810  38.5092770  58.4190120
  49.1154290  38.0155420  57.7880290  49.1776230  38.6443130  59.1637690
  34.6250970  36.8434320  51.0508300  35.3342670  36.4217540  50.5655580
  33.9090910  36.9109550  50.4191650  34.2725130  32.8973650  50.0910950
  34.9953260  33.4382590  50.4092170  34.5449650  32.6237070  49.2152490
  48.0816780  37.7666120  54.3582530  48.5775900  37.5336990  55.1431410
  47.8832850  36.9277960  53.9420170  49.5103940  36.4027070  56.8920210
  49.4003220  36.2483110  57.8302480  50.2711530  35.8748010  56.6495620
  50.3994210  34.2334990  50.1326350  51.3243520  34.1016170  49.9244640
  50.3770000  34.3127810  51.0862800  50.4732700  35.0045650  52.7583060
  49.6784200  34.9390770  53.2875970  50.6775980  35.9396290  52.7468410
  47.4151120  49.0437200  56.7521450  48.0110190  48.7221770  56.0755870
  47.6729270  48.5709020  57.5434720  38.3959050  48.0020740  59.7567310
  38.9124070  47.3908100  59.2315570  39.0456430  48.5049520  60.2478320
  46.9052630  33.3342530  59.2081890  47.3460720  33.2787630  58.3603490
  46.6360220  34.2500540  59.2792070  48.7691200  32.9657770  57.2190710
  48.7079600  32.0218990  57.0721730  49.5483230  33.0737860  57.7644170
  33.0743950  49.1050130  56.1814660  32.9065990  48.4720810  56.8796550
  32.2078460  49.3109530  55.8308850  33.6971970  32.9366910  53.6846520
  34.4551330  33.0495790  53.1110550  33.2349140  33.7736110  53.6389950
  40.2385780  35.0506180  56.6748830  39.4260290  34.6763070  56.3344710
  40.7427420  34.2951260  56.9770020  44.7410760  31.7148630  57.9131900
  45.3440130  32.2868840  58.3880420  44.0003750  32.2788070  57.6905800
  47.8845360  32.1170190  53.1872180  48.0795990  33.0153640  53.4539610
  47.0975230  31.8857270  53.6805130  34.6806650  47.7983360  53.6264800
  34.1554270  48.1791390  52.9226760  34.6051230  48.4234130  54.3474510
  36.0697120  33.4630960  52.2248490  36.5989880  32.6760760  52.0956440
  36.7025440  34.1422150  52.4584020  38.2634960  33.2006100  55.2793880
  37.6337700  32.4993410  55.4464010  37.7240100  33.9610230  55.0627040
  49.4371970  49.3570900  54.9478740  49.6124160  48.6708640  54.3039660
  48.7393540  49.8817950  54.5555410  37.2799620  49.7465740  52.5014050
  38.0118440  49.4625020  51.9537940  37.5393290  49.5079020  53.3913430
  36.4414410  45.8630470  52.5060380  35.8123290  46.3315570  53.0546210
  36.5562240  45.0179690  52.9406570  43.8964130  39.9136130  38.6561580
  43.8158180  38.9990740  38.3853290  43.4828550  40.4103200  37.9501290
  42.0282170  41.6915150  40.5370850  41.2524270  41.2115590  40.8269420
  42.6795100  41.0120800  40.3627010  46.0489600  46.0975340  39.3169980
  45.5871130  45.3262580  39.6457150  46.8615150  46.1241410  39.8222430
  34.4539950  36.9636850  35.1989000  33.5656650  37.3052820  35.0968880
  34.7381140  36.7637170  34.3069830  41.4691160  44.3672340  40.5441010
  41.3999440  43.4262280  40.3830140  42.2311020  44.4573750  41.1163580
  42.4996330  37.1742720  40.7709940  42.8761150  36.3014600  40.6583610
  42.4015840  37.5101420  39.8800380  36.6301340  35.5468350  36.2327380
  36.7368090  36.4472080  36.5396140  35.7193700  35.4986320  35.9422030
  46.2820450  34.6693160  37.7038280  47.1030070  34.1789730  37.7463760
  46.3154530  35.2590820  38.4570120  38.4709070  38.5154720  40.5652560
  38.9787290  39.0135690  41.2057580  39.0022310  37.7389920  40.3891920
  43.1416260  43.2672590  36.3305880  42.5233530  43.7322040  35.7668600
  43.6539510  43.9600070  36.7475390  46.5181930  36.6093540  40.4765820
  45.8137500  36.8978430  41.0568930  46.8794090  37.4193650  40.1165380
  32.5099460  43.9529120  33.7045510  32.1327440  44.4416220  32.9730410
  32.7672530  44.6254400  34.3352040  46.9648870  44.7929020  36.5428650
  46.8545200  43.8503350  36.6678070  46.9617120  45.1544660  37.4291410
  42.5069150  40.4194340  35.8991140  41.5798430  40.3531720  36.1279610
  42.6593970  41.3574470  35.7846380  42.4938230  36.6911340  32.8958300
  41.5541900  36.8525300  32.9810760  42.8121490  37.4097020  32.3494290
  46.5366440  41.9814640  36.4026390  45.9178860  41.6434190  35.7552690
  46.5190890  41.3374400  37.1105580  38.1125790  40.9459080  38.6810870
  37.7082790  40.2336330  38.1856770  38.1988910  40.6012320  39.5698910
  38.5807490  44.6326640  40.8450080  38.2835780  44.0272110  40.1657860
  39.5307310  44.6703950  40.7339440  36.8254410  37.7202290  42.4609910
  37.3769000  37.8297630  41.6863160  37.3397920  38.0939890  43.1765140
  44.7131140  41.2201450  33.4099140  45.1524420  40.3823880  33.2636960
  45.4259560  41.8530850  33.4963280  42.8226520  46.1597520  37.3780380
  43.2622430  46.9021850  36.9635770  42.7613410  46.4024090  38.3019340
  48.2948280  32.4744260  31.7240180  47.9820940  32.5671090  32.6239250
  49.0560750  33.0525290  31.6737610  34.8130420  39.8404060  36.1817520
  34.6928020  40.5666150  35.5698790  34.5031310  39.0706970  35.7045430
  50.2492310  47.9670450  49.5764570  50.7252030  48.4453340  50.2553650
  50.8699470  47.8987940  48.8510070  33.6963420  44.7119390  38.3992340
  33.2891500  44.8533980  37.5445940  34.5876430  44.4279550  38.1963550
  37.9685080  48.9265170  36.5115010  37.7927560  48.0100710  36.2982810
  37.1140820  49.2852460  36.7512810  40.3952900  32.8049830  34.4447020
  39.7707080  32.8009700  35.1700330  40.3083020  31.9380790  34.0482990
  37.0708300  38.3072700  37.2922440  36.8449220  38.0909870  38.1969060
  36.2900830  38.7401160  36.9468410  44.3006060  38.3136070  35.8913090
  43.7014950  39.0371870  35.7076710  44.8485670  38.2512850  35.1089540
  42.9070930  36.9499610  37.9216370  43.3000500  37.2671810  37.1085060
  43.2687780  36.0711490  38.0360890  32.1305330  37.4820530  31.3549290
  32.0480000  38.4251290  31.4964280  31.7788390  37.3395440  30.4761640
  39.9303460  36.2159560  40.4219640  39.9339520  35.7749510  39.5724180
  40.8254580  36.5376890  40.5291460  39.9923610  37.2171640  33.4126400
  40.1136430  37.1758120  34.3612220  39.6072120  38.0795790  33.2573130
  39.0045110  39.5272780  32.8109700  38.4362010  39.0791030  32.1845610
  39.7134110  39.8865560  32.2774850  36.5492590  43.5230970  35.0836110
  35.7754850  42.9828590  34.9234830  37.2787220  43.0037580  34.7453870
  42.7690510  33.9134290  35.0191890  41.9555120  33.4147460  34.9437200
  42.5752460  34.7532540  34.6028240  45.4838900  38.2853940  33.3154050
  46.3718520  38.5971170  33.1405390  45.4543990  37.4126190  32.9234630
  36.5929990  43.1911350  38.7214920  37.1108660  42.3879610  38.6671810
  36.1414010  43.1290490  39.5631750  41.4799490  44.4577630  33.9942220
  41.8215190  45.2019860  33.4985540  40.6512200  44.7708750  34.3567050
  47.7553170  39.5965780  32.7833910  47.6716890  40.0280000  31.9330350
  48.4747360  40.0564130  33.2160730  44.3626900  43.7793470  39.3587730
  44.7150720  43.1821600  38.6989100  43.4789230  43.4537700  39.5295980
  40.4490180  44.5391160  36.7658140  41.1361310  45.0860370  37.1465730
  39.6622600  45.0831890  36.8007750  32.5882580  40.1563980  32.2575220
  33.4577430  40.4388780  32.5411140  32.0972900  40.9699850  32.1424030
  39.7517390  41.5437190  36.3783500  40.2080170  42.3542440  36.6043690
  39.4005600  41.2260330  37.2101990  43.3282080  45.0575880  42.3253250
  43.9704310  44.3569040  42.4385420  43.8531430  45.8374320  42.1450140
  32.6523100  33.6465960  46.3112720  31.9381620  33.8462880  46.9165330
  33.0718140  32.8705530  46.6827520  46.7554050  43.2596440  33.7106550
  46.4675750  43.7209130  34.4984430  47.5506220  42.7994210  33.9790770
  40.9308280  45.9062110  48.6977370  40.6105150  45.1871350  49.2423060
  40.2566640  46.5817180  48.7713430  38.9722450  46.7522560  33.6410520
  38.9632550  47.4852250  33.0255030  38.0520810  46.5054140  33.7337480
  34.5729090  41.9737450  34.3857280  33.9657040  42.7136350  34.3952580
  35.0478440  42.0636810  33.5595480  47.5123910  35.0945210  34.8701730
  46.8837070  35.1990880  34.1559960  47.0175830  35.3141990  35.6595610
  39.4807940  37.3731160  36.2859610  38.7724090  37.8417500  36.7273220
  39.7652420  36.7153170  36.9204800  43.5123370  34.0981820  37.7255400
  43.3891150  34.1167950  36.7764910  44.4607930  34.1460760  37.8453800
  37.6842960  35.6816240  33.6610320  38.5333490  36.1186390  33.5950510
  37.3174230  35.9936500  34.4882380  46.6052740  40.2529000  38.5741890
  45.6642880  40.2679230  38.7489580  46.9196810  39.4664960  39.0202190
  36.5834380  41.9348600  32.1345850  37.3497650  41.8229960  32.6971280
  36.6609070  41.2386570  31.4822620  35.2781140  39.3673670  32.8178740
  35.3584730  38.4201180  32.9296140  36.1700890  39.6980550  32.9239400
  36.0795850  49.5169060  39.9213280  36.8158330  48.9684520  40.1921850
  36.4636770  50.3825070  39.7819270  32.9641330  45.5842630  35.7954790
  32.0381110  45.8263770  35.7860200  33.4297760  46.4116890  35.6739540
  35.0854130  48.7015130  49.1098860  35.8866860  49.0227180  49.5234260
  34.5705950  48.3410710  49.8318770  43.9218760  44.8095000  49.0574270
  43.3156920  44.8326600  48.3170020  43.6172870  44.0778040  49.5941520
  45.3519130  48.5375290  47.6683680  46.3040880  48.4533310  47.6183920
  45.2047350  49.2017000  48.3417470  39.7075560  43.9102780  31.6081200
  39.6026200  43.2955130  32.3342580  39.5399780  43.3868670  30.8244210
  42.9478290  42.9722810  32.2123190  42.3988390  43.4192110  32.8565930
  43.5697550  42.4672060  32.7360860  47.0013230  44.3264910  48.1445450
  47.7422700  44.6640670  47.6412910  46.2385910  44.4956970  47.5915220
  38.6153410  41.9313730  34.1088490  39.0369830  41.7653600  34.9519880
  38.7404250  41.1213960  33.6143630  41.1281050  40.9551340  31.3565590
  41.6486710  40.2400360  30.9906740  41.7749450  41.5937210  31.6566100
  37.5112310  38.0046960  31.0546650  37.3101370  37.1414320  31.4159990
  37.3404360  37.9180320  30.1168250  44.9900620  32.8155190  33.5833530
  45.2702910  31.9723090  33.9392950  44.2166350  33.0478300  34.0972280
  36.3095110  35.1047580  31.0424530  36.6121010  35.1115010  30.1343680
  37.0489700  34.7545440  31.5392190  39.5280040  34.0482200  32.0280730
  39.1802040  33.3706190  31.4483180  39.7292810  33.5871710  32.8424120
  35.3325240  44.4090000  31.8754330  35.7700110  44.9519670  32.5311910
  35.8172970  43.5836950  31.8850670  32.5471040  47.1979030  39.3274590
  32.8774050  46.3300090  39.0953230  32.9762040  47.4037550  40.1579550
  37.1432960  45.5288040  36.9876560  36.8428500  45.4053010  37.8880470
  37.0370450  44.6696630  36.5792290  49.3681340  42.0531920  34.1937440
  50.1300250  42.6228570  34.2997130  49.3835710  41.4859120  34.9645750
  50.3741310  42.9082020  39.0379370  50.7450140  42.1249340  38.6315340
  51.0143240  43.5971120  38.8596670  49.4200510  42.3466290  31.3509960
  49.6949350  43.2545170  31.2229180  49.2311250  42.2828820  32.2871950
  45.8176120  35.3711140  32.6463590  46.2361000  35.1842120  31.8060250
  45.5112180  34.5190190  32.9566520  49.3165850  40.2835280  36.3439390
  48.9409450  39.5163210  35.9120680  48.5868970  40.6657980  36.8314320
  32.0823760  37.7868780  34.3670430  31.1787840  38.0498980  34.1922090
  32.5664380  38.0579950  33.5870390  48.5916810  38.5092770  39.6446630
  49.1154290  38.0155420  39.0136800  49.1776230  38.6443130  40.3894200
  34.6250970  36.8434320  32.2764810  35.3342670  36.4217540  31.7912090
  33.9090910  36.9109550  31.6448160  34.2725130  32.8973650  31.3167460
  34.9953260  33.4382590  31.6348680  34.5449650  32.6237070  30.4409000
  48.0816780  37.7666120  35.5839040  48.5775900  37.5336990  36.3687920
  47.8832850  36.9277960  35.1676680  49.5103940  36.4027070  38.1176720
  49.4003220  36.2483110  39.0558990  50.2711530  35.8748010  37.8752130
  50.3994210  34.2334990  31.3582860  51.3243520  34.1016170  31.1501150
  50.3770000  34.3127810  32.3119310  50.4732700  35.0045650  33.9839570
  49.6784200  34.9390770  34.5132480  50.6775980  35.9396290  33.9724920
  34.3869960  31.8311710  47.2366170  34.9352950  31.6499760  46.4732280
  34.4525270  31.0405820  47.7722480  42.3531560  32.6319430  42.3889310
  41.5703350  33.1064930  42.6686070  42.0594490  31.7274260  42.2802490
  46.9052630  33.3342530  40.4338400  47.3460720  33.2787630  39.5860000
  46.6360220  34.2500540  40.5048580  48.7691200  32.9657770  38.4447220
  48.7079600  32.0218990  38.2978240  49.5483230  33.0737860  38.9900680
  33.6971970  32.9366910  34.9103030  34.4551330  33.0495790  34.3367060
  33.2349140  33.7736110  34.8646460  40.2385780  35.0506180  37.9005340
  39.4260290  34.6763070  37.5601220  40.7427420  34.2951260  38.2026530
  44.7410760  31.7148630  39.1388410  45.3440130  32.2868840  39.6136930
  44.0003750  32.2788070  38.9162310  47.8845360  32.1170190  34.4128690
  48.0795990  33.0153640  34.6796120  47.0975230  31.8857270  34.9061640
  36.0697120  33.4630960  33.4505000  36.5989880  32.6760760  33.3212950
  36.7025440  34.1422150  33.6840530  38.2634960  33.2006100  36.5050390
  37.6337700  32.4993410  36.6720520  37.7240100  33.9610230  36.2883550
  41.2026910  49.8145330  49.1761000  42.1294220  49.5789600  49.2196960
  41.1877340  50.6417330  48.6947030  47.7704470  49.0415190  49.0002040
  48.5629790  48.5464420  48.7928000  48.0637620  49.7205330  49.6077650
  43.8964130  39.9136130  19.8818090  43.8158180  38.9990740  19.6109800
  43.4828550  40.4103200  19.1757800  42.0282170  41.6915150  21.7627360
  41.2524270  41.2115590  22.0525930  42.6795100  41.0120800  21.5883520
  36.0448000  42.0034960  22.6403120  35.2132880  41.7483670  23.0399630
  36.6528980  42.0745730  23.3761040  46.0489600  46.0975340  20.5426490
  45.5871130  45.3262580  20.8713660  46.8615150  46.1241410  21.0478940
  36.0249260  46.0375050  22.8361140  36.3277300  45.1472790  22.6571360
  36.7692850  46.5945270  22.6083390  34.4539950  36.9636850  16.4245510
  33.5656650  37.3052820  16.3225390  34.7381140  36.7637170  15.5326340
  32.4172960  39.5642500  22.3085210  32.9889070  38.7964700  22.3088850
  32.4174500  39.8631260  21.3991820  42.2752910  48.3833350  20.1630480
  41.6564350  48.8390850  19.5924920  43.1304690  48.5384810  19.7620180
  41.4691160  44.3672340  21.7697520  41.3999440  43.4262280  21.6086650
  42.2311020  44.4573750  22.3420090  33.6597830  34.9726860  24.0954140
  33.4800670  34.0752610  24.3756900  33.2577910  35.5198730  24.7701090
  42.4996330  37.1742720  21.9966450  42.8761150  36.3014600  21.8840120
  42.4015840  37.5101420  21.1056890  36.6301340  35.5468350  17.4583890
  36.7368090  36.4472080  17.7652650  35.7193700  35.4986320  17.1678540
  46.2820450  34.6693160  18.9294790  47.1030070  34.1789730  18.9720270
  46.3154530  35.2590820  19.6826630  34.2784500  37.4687360  22.7036480
  34.9594610  37.7325730  23.3223880  33.9632550  36.6288230  23.0374490
  38.4709070  38.5154720  21.7909070  38.9787290  39.0135690  22.4314090
  39.0022310  37.7389920  21.6148430  50.5720000  36.6859910  25.4938420
  49.8672170  37.0741620  24.9753530  50.8377920  37.3810200  26.0959350
  36.7545170  33.1553280  26.0572490  36.7563610  33.6725670  25.2518390
  35.9249480  32.6783460  26.0342420  43.1416260  43.2672590  17.5562390
  42.5233530  43.7322040  16.9925110  43.6539510  43.9600070  17.9731900
  38.0048020  42.7948460  24.2345990  37.6717400  43.4217380  24.8767060
  38.1814700  43.3210340  23.4547660  46.5181930  36.6093540  21.7022330
  45.8137500  36.8978430  22.2825440  46.8794090  37.4193650  21.3421890
  36.4360500  34.8663240  24.0642940  36.7777310  35.7105290  23.7696810
  35.4976310  35.0146980  24.1808280  37.2167120  44.7629260  26.0495170
  37.8341120  45.4380340  25.7679620  36.3560240  45.1717240  25.9582670
  32.5099460  43.9529120  14.9302020  32.1327440  44.4416220  14.1986920
  32.7672530  44.6254400  15.5608550  49.5868850  36.0548330  22.0931540
  48.6393760  36.0887310  22.2246970  49.9118840  36.8687280  22.4780900
  40.1188390  32.3545510  20.3887530  40.4263370  31.7992400  19.6723030
  39.1889090  32.4889970  20.2060520  46.9648870  44.7929020  17.7685160
  46.8545200  43.8503350  17.8934580  46.9617120  45.1544660  18.6547920
  45.0688890  42.9742640  24.0077600  45.4857680  42.7602750  23.1731060
  45.7928710  43.2315430  24.5786220  42.5069150  40.4194340  17.1247650
  41.5798430  40.3531720  17.3536120  42.6593970  41.3574470  17.0102890
  42.4938230  36.6911340  14.1214810  41.5541900  36.8525300  14.2067270
  42.8121490  37.4097020  13.5750800  49.0150990  41.3729860  24.0993840
  48.1869620  41.4422950  23.6243970  49.6101470  41.9584170  23.6309670
  46.5366440  41.9814640  17.6282900  45.9178860  41.6434190  16.9809200
  46.5190890  41.3374400  18.3362090  45.9793000  38.1599180  25.0448710
  45.5664180  38.9852890  25.2988700  45.2468950  37.5744220  24.8525070
  38.1125790  40.9459080  19.9067380  37.7082790  40.2336330  19.4113280
  38.1988910  40.6012320  20.7955420  38.5807490  44.6326640  22.0706590
  38.2835780  44.0272110  21.3914370  39.5307310  44.6703950  21.9595950
  36.8254410  37.7202290  23.6866420  37.3769000  37.8297630  22.9119670
  37.3397920  38.0939890  24.4021650  37.6725920  44.3708330  28.7214390
  36.7754450  44.5948300  28.9687790  37.6978790  44.4943270  27.7725790
  44.7131140  41.2201450  14.6355650  45.1524420  40.3823880  14.4893470
  45.4259560  41.8530850  14.7219790  36.4997140  41.2421650  27.2971760
  36.3604910  42.1144450  27.6659160  35.6178500  40.8994460  27.1519700
  42.8226520  46.1597520  18.6036890  43.2622430  46.9021850  18.1892280
  42.7613410  46.4024090  19.5275850  38.2977490  47.1843350  29.5056910
  38.2692920  47.5886300  28.6385340  38.1342460  46.2553710  29.3428510
  48.2948280  32.4744260  12.9496690  47.9820940  32.5671090  13.8495760
  49.0560750  33.0525290  12.8994120  34.8130420  39.8404060  17.4074030
  34.6928020  40.5666150  16.7955300  34.5031310  39.0706970  16.9301940
  32.4515790  43.0119200  23.2142670  32.5296210  43.1467970  22.2698390
  33.0657470  42.3035090  23.4070790  33.6963420  44.7119390  19.6248850
  33.2891500  44.8533980  18.7702450  34.5876430  44.4279550  19.4220060
  45.4896700  49.1466640  15.9599900  45.3297840  48.8569580  16.8581730
  45.3243410  48.3706770  15.4245130  37.9685080  48.9265170  17.7371520
  37.7927560  48.0100710  17.5239320  37.1140820  49.2852460  17.9769320
  45.1922830  46.6554200  14.5197900  44.4987990  46.6531490  13.8600180
  45.9345690  46.2313520  14.0892070  44.7572760  48.2816910  18.5946390
  45.2129710  47.5006290  18.9085010  45.0965280  48.9923730  19.1387570
  49.5049570  37.2115760  28.9270830  48.8893840  37.7195430  28.3986290
  49.1845990  36.3114090  28.8696770  32.5075310  44.0533370  25.7537130
  32.6706350  43.5838730  24.9356500  32.9727760  43.5456930  26.4185970
  37.2794080  33.1839130  20.7897700  36.8362230  33.9648670  20.4582220
  37.8379070  33.5069020  21.4968640  41.5663890  36.0507650  26.3933020
  41.1043260  36.2590670  27.2052960  41.1642000  35.2367000  26.0903690
  46.5668400  37.2716600  27.5229680  45.7161990  36.9722350  27.8438750
  46.4070190  37.5158610  26.6113500  43.6618110  38.7718350  29.6228470
  43.9871520  37.9382100  29.2830700  44.4498440  39.2946870  29.7706800
  40.3952900  32.8049830  15.6703530  39.7707080  32.8009700  16.3956840
  40.3083020  31.9380790  15.2739500  39.3169980  33.7286460  22.6487300
  39.6142310  34.6349290  22.5679320  39.8655540  33.2405240  22.0346870
  37.0708300  38.3072700  18.5178950  36.8449220  38.0909870  19.4225570
  36.2900830  38.7401160  18.1724920  44.3006060  38.3136070  17.1169600
  43.7014950  39.0371870  16.9333220  44.8485670  38.2512850  16.3346050
  39.5107510  39.2058280  29.1839220  39.4151110  38.2653010  29.0339620
  40.3539490  39.4273350  28.7887290  42.9070930  36.9499610  19.1472880
  43.3000500  37.2671810  18.3341570  43.2687780  36.0711490  19.2617400
  34.6418050  35.6171950  27.3373000  34.2481440  36.4647160  27.5445780
  33.9536450  34.9798320  27.5281640  41.2163100  35.7006920  30.4069740
  40.5261420  35.5079120  31.0415830  41.9595400  35.9841560  30.9394040
  31.9435100  33.5400410  21.3703080  31.6548150  34.1103270  22.0828060
  32.6880860  33.0604860  21.7334310  32.1305330  37.4820530  12.5805800
  32.0480000  38.4251290  12.7220790  31.7788390  37.3395440  11.7018150
  43.4926070  39.5405360  23.2423660  42.7607190  40.0492170  23.5913760
  43.0950410  38.7235340  22.9412440  39.9303460  36.2159560  21.6476150
  39.9339520  35.7749510  20.7980690  40.8254580  36.5376890  21.7547970
  35.7805840  36.0986050  20.6070360  35.4405890  36.5761280  21.3637410
  35.0183160  35.6451170  20.2471460  39.9923610  37.2171640  14.6382910
  40.1136430  37.1758120  15.5868730  39.6072120  38.0795790  14.4829640
  43.9551980  34.9939040  22.6546600  43.9724720  35.4447690  23.4988450
  43.7067560  34.0944680  22.8680040  39.0045110  39.5272780  14.0366210
  38.4362010  39.0791030  13.4102120  39.7134110  39.8865560  13.5031360
  47.3822730  32.4071220  28.4932980  47.7068500  31.6760880  29.0190960
  47.4179240  32.0884860  27.5913970  34.0814290  43.4284800  27.9132940
  33.6969080  42.7878470  28.5115900  34.3926480  44.1320920  28.4827670
  40.2311430  40.2761340  23.3941560  40.5981560  39.8019910  24.1402900
  40.0416490  41.1502910  23.7349900  33.0951920  35.0205030  19.5235030
  32.8098840  34.6560700  20.3613650  33.0330780  34.2885490  18.9098170
  38.0210800  39.3169980  25.7125770  37.7167870  40.1961960  25.9376130
  38.9757260  39.3769770  25.7483210  36.5492590  43.5230970  16.3092620
  35.7754850  42.9828590  16.1491340  37.2787220  43.0037580  15.9710380
  47.3080570  42.5196330  22.1019010  48.0279690  43.0151620  21.7115120
  47.1062390  41.8414220  21.4572880  42.7690510  33.9134290  16.2448400
  41.9555120  33.4147460  16.1693710  42.5752460  34.7532540  15.8284750
  42.6899370  42.5905390  27.9888010  42.6236680  41.6701060  27.7345600
  42.0604510  42.6880830  28.7032650  45.4838900  38.2853940  14.5410560
  46.3718520  38.5971170  14.3661900  45.4543990  37.4126190  14.1491140
  36.5929990  43.1911350  19.9471430  37.1108660  42.3879610  19.8928320
  36.1414010  43.1290490  20.7888260  41.4799490  44.4577630  15.2198730
  41.8215190  45.2019860  14.7242050  40.6512200  44.7708750  15.5823560
  34.0774530  40.1572720  26.8597130  33.7189470  40.8226570  27.4470470
  33.7829090  39.3256270  27.2309750  37.2787650  40.6156960  29.7436680
  36.9787790  40.7614140  28.8464500  38.0498890  40.0562250  29.6510070
  42.6216100  45.4125960  27.7391810  42.6360640  44.4806920  27.5210720
  41.9141200  45.4985720  28.3781580  47.7553170  39.5965780  14.0090420
  47.6716890  40.0280000  13.1586860  48.4747360  40.0564130  14.4417240
  48.8327310  42.0533300  27.0860390  48.1075500  42.6462080  26.8889780
  49.3602770  42.0456840  26.2873760  48.7840420  46.4508040  16.7372550
  48.1416580  45.7963660  17.0116270  48.3971080  46.8563130  15.9613220
  44.3626900  43.7793470  20.5844240  44.7150720  43.1821600  19.9245610
  43.4789230  43.4537700  20.7552490  40.4490180  44.5391160  17.9914650
  41.1361310  45.0860370  18.3722240  39.6622600  45.0831890  18.0264260
  32.5882580  40.1563980  13.4831730  33.4577430  40.4388780  13.7667650
  32.0972900  40.9699850  13.3680540  39.7517390  41.5437190  17.6040010
  40.2080170  42.3542440  17.8300200  39.4005600  41.2260330  18.4358500
  42.0550000  47.0543530  24.8332310  42.6992220  47.2602910  25.5105730
  42.4179440  46.2931930  24.3803160  35.6529170  31.8874840  18.0762530
  35.5243800  31.8792740  19.0247450  34.8291190  32.2257930  17.7253540
  43.3282080  45.0575880  23.5509760  43.9704310  44.3569040  23.6641930
  43.8531430  45.8374320  23.3706650  47.1737800  45.3424500  13.2748900
  46.9475380  44.6254940  13.8673540  46.7834000  45.0936940  12.4370650
  32.9553830  49.3691360  14.0493360  33.3151470  49.9680700  13.3950630
  32.8146170  49.9151250  14.8228390  32.6523100  33.6465960  27.5369230
  31.9381620  33.8462880  28.1421840  33.0718140  32.8705530  27.9084030
  46.7554050  43.2596440  14.9363060  46.4675750  43.7209130  15.7240940
  47.5506220  42.7994210  15.2047280  40.9308280  45.9062110  29.9233880
  40.6105150  45.1871350  30.4679570  40.2566640  46.5817180  29.9969940
  38.9722450  46.7522560  14.8667030  38.9632550  47.4852250  14.2511540
  38.0520810  46.5054140  14.9593990  34.5729090  41.9737450  15.6113790
  33.9657040  42.7136350  15.6209090  35.0478440  42.0636810  14.7851990
  44.1461880  36.1388270  25.2870680  44.5142700  35.3183480  25.6150250
  43.2860080  36.1990160  25.7026330  47.5123910  35.0945210  16.0958240
  46.8837070  35.1990880  15.3816470  47.0175830  35.3141990  16.8852120
  41.9582050  46.8150800  13.5292220  42.0594030  46.6114790  12.5994200
  41.0583790  46.5609080  13.7340000  39.4807940  37.3731160  17.5116120
  38.7724090  37.8417500  17.9529730  39.7652420  36.7153170  18.1461310
  41.1063870  38.7927860  25.5108650  41.6049120  39.2673680  26.1760500
  41.2486820  37.8691380  25.7178680  43.5123370  34.0981820  18.9511910
  43.3891150  34.1167950  18.0021420  44.4607930  34.1460760  19.0710310
  40.6000160  49.3337120  18.2239890  40.8541660  49.2958510  17.3019260
  39.6512640  49.2070450  18.2168140  37.6842960  35.6816240  14.8866830
  38.5333490  36.1186390  14.8207020  37.3174230  35.9936500  15.7138890
  48.3130730  35.0095820  26.3537040  47.8104330  35.7501220  26.6930850
  49.1287390  35.3979820  26.0373830  46.6052740  40.2529000  19.7998400
  45.6642880  40.2679230  19.9746090  46.9196810  39.4664960  20.2458700
  36.5834380  41.9348600  13.3602360  37.3497650  41.8229960  13.9227790
  36.6609070  41.2386570  12.7079130  35.2781140  39.3673670  14.0435250
  35.3584730  38.4201180  14.1552650  36.1700890  39.6980550  14.1495910
  36.0795850  49.5169060  21.1469790  36.8158330  48.9684520  21.4178360
  36.4636770  50.3825070  21.0075780  32.9641330  45.5842630  17.0211300
  32.0381110  45.8263770  17.0116710  33.4297760  46.4116890  16.8996050
  39.1898160  48.6899370  12.9695360  39.9826770  48.9788200  12.5177150
  38.6702510  48.2591540  12.2907840  48.2428330  47.9169500  14.3932100
  47.9569840  47.5034640  13.5786280  48.0447880  48.8457210  14.2732620
  32.8051940  41.1888590  29.2791420  33.3090960  40.6095870  29.8507650
  32.0659360  41.4728820  29.8167790  39.7075560  43.9102780  12.8337710
  39.6026200  43.2955130  13.5599090  39.5399780  43.3868670  12.0500720
  39.8589880  42.5959580  28.8126940  39.0935550  43.1644580  28.7281610
  40.0405840  42.3035790  27.9195170  42.9478290  42.9722810  13.4379700
  42.3988390  43.4192110  14.0822440  43.5697550  42.4672060  13.9617370
  34.8375020  39.3318180  30.1741490  34.8780360  39.0332050  31.0826720
  35.6920520  39.7325790  30.0149010  38.6153410  41.9313730  15.3345000
  39.0369830  41.7653600  16.1776390  38.7404250  41.1213960  14.8400140
  36.7780830  37.9110280  28.1415980  36.2477290  37.4201230  27.5139320
  37.4468900  38.3394480  27.6073910  41.1281050  40.9551340  12.5822100
  41.6486710  40.2400360  12.2163250  41.7749450  41.5937210  12.8822610
  45.6758890  42.3779740  27.9057170  46.0899910  42.5324820  28.7547590
  44.7409890  42.5034960  28.0682950  46.1481060  39.7175900  29.9096320
  46.7301830  38.9628220  29.8216800  46.3242830  40.2483340  29.1327800
  37.2653130  34.8772650  28.2213270  37.1710000  34.2593400  27.4964140
  36.6850520  35.6038940  27.9943180  40.0314570  33.4345890  25.2540660
  39.5831870  33.4570150  24.4086210  39.3979770  33.0364910  25.8510960
  40.4374120  42.3300220  25.8753100  40.8562230  43.1732950  25.7029340
  39.5182750  42.4672260  25.6459880  42.7738020  40.0616400  27.2590940
  42.8934230  39.4657540  27.9985780  43.6332020  40.0986090  26.8392240
  45.1125920  40.6153590  25.8353450  44.5861140  41.1396210  25.2318590
  45.4557260  41.2480980  26.4663180  37.5112310  38.0046960  12.2803160
  37.3101370  37.1414320  12.6416500  37.3404360  37.9180320  11.3424760
  39.5406790  36.6037750  28.5166760  40.1306480  36.2953600  29.2044580
  38.7227030  36.1317500  28.6726660  44.3600220  36.2203560  28.7499780
  43.6715740  35.5585100  28.6849770  45.0806240  35.7741830  29.1948240
  44.9900620  32.8155190  14.8090040  45.2702910  31.9723090  15.1649460
  44.2166350  33.0478300  15.3228790  36.3095110  35.1047580  12.2681040
  36.6121010  35.1115010  11.3600190  37.0489700  34.7545440  12.7648700
  39.5280040  34.0482200  13.2537240  39.1802040  33.3706190  12.6739690
  39.7292810  33.5871710  14.0680630  41.6929080  49.0362950  14.8723840
  42.5879870  49.3747920  14.8942600  41.7246710  48.3142360  14.2448120
  35.3325240  44.4090000  13.1010840  35.7700110  44.9519670  13.7568420
  35.8172970  43.5836950  13.1107180  32.5471040  47.1979030  20.5531100
  32.8774050  46.3300090  20.3209740  32.9762040  47.4037550  21.3836060
  37.1432960  45.5288040  18.2133070  36.8428500  45.4053010  19.1136980
  37.0370450  44.6696630  17.8048800  33.0361250  48.0649620  23.2912730
  32.5992240  48.2450420  24.1236880  33.6038930  48.8224240  23.1494450
  49.9124880  45.3084440  12.9159750  49.0817840  45.3761090  13.3866980
  50.0896710  46.1988560  12.6126610  49.3681340  42.0531920  15.4193950
  50.1300250  42.6228570  15.5253640  49.3835710  41.4859120  16.1902260
  32.8685680  40.5769850  19.6501610  32.2134520  40.3081490  19.0061310
  33.7063630  40.4674330  19.2003590  50.3741310  42.9082020  20.2635880
  50.7450140  42.1249340  19.8571850  51.0143240  43.5971120  20.0853180
  47.3575070  44.2918600  25.6766200  46.5434910  44.7215760  25.9391990
  47.7649270  44.9037010  25.0635250  49.4200510  42.3466290  12.5766470
  49.6949350  43.2545170  12.4485690  49.2311250  42.2828820  13.5128460
  45.8176120  35.3711140  13.8720100  46.2361000  35.1842120  13.0316760
  45.5112180  34.5190190  14.1823030  49.3165850  40.2835280  17.5695900
  48.9409450  39.5163210  17.1377190  48.5868970  40.6657980  18.0570830
  33.9061610  40.9622420  24.1904950  34.2734650  40.8749820  25.0700970
  33.3372430  40.1988970  24.0911810  48.7065470  39.4306800  27.2035420
  48.4751560  39.2019550  26.3033370  48.9670020  40.3506350  27.1580310
  33.4577610  37.8731510  28.0963370  32.5633660  37.8398270  28.4357080
  33.9975160  38.0718300  28.8614620  47.1453540  34.6563230  29.9815120
  48.0223720  34.6646630  30.3649120  47.1574380  33.9194070  29.3707470
  32.0823760  37.7868780  15.5926940  31.1787840  38.0498980  15.4178600
  32.5664380  38.0579950  14.8126900  48.5916810  38.5092770  20.8703140
  49.1154290  38.0155420  20.2393310  49.1776230  38.6443130  21.6150710
  48.7706530  38.5932640  24.3922690  47.8209240  38.5596180  24.5067680
  48.9519540  39.5032750  24.1572460  34.6250970  36.8434320  13.5021320
  35.3342670  36.4217540  13.0168600  33.9090910  36.9109550  12.8704670
  34.2725130  32.8973650  12.5423970  34.9953260  33.4382590  12.8605190
  34.5449650  32.6237070  11.6665510  48.0816780  37.7666120  16.8095550
  48.5775900  37.5336990  17.5944430  47.8832850  36.9277960  16.3933190
  33.9617320  32.1479840  22.4446590  34.6093510  31.5977220  22.0041750
  34.3819160  32.4022990  23.2662400  49.5103940  36.4027070  19.3433230
  49.4003220  36.2483110  20.2815500  50.2711530  35.8748010  19.1008640
  47.8569660  32.3421200  25.8016230  48.4941880  32.9555340  26.1675420
  48.0044550  32.3781860  24.8565460  50.3994210  34.2334990  12.5839370
  51.3243520  34.1016170  12.3757660  50.3770000  34.3127810  13.5375820
  50.4732700  35.0045650  15.2096080  49.6784200  34.9390770  15.7388990
  50.6775980  35.9396290  15.1981430  47.4151120  49.0437200  19.2034470
  48.0110190  48.7221770  18.5268890  47.6729270  48.5709020  19.9947740
  33.7149320  32.3035510  25.1871910  33.3664140  32.7599330  25.9530090
  33.3837020  31.4092640  25.2694340  35.3213690  45.4755110  29.3525100
  35.2783320  45.1048020  30.2339560  35.4524700  46.4132680  29.4926920
  39.0219720  47.0314700  24.9534820  38.7811080  47.2989260  24.0665340
  39.9622360  47.2020430  25.0085680  41.2274140  33.4947390  28.7091330
  41.1663030  34.0869220  29.4586740  42.1674520  33.3873350  28.5641590
  43.8648700  33.1517450  28.3483620  44.4789110  33.4696740  27.6864700
  44.4098260  32.6666040  28.9679480  34.3869960  31.8311710  28.4622680
  34.9352950  31.6499760  27.6988790  34.4525270  31.0405820  28.9978990
  44.6056740  31.7149590  24.6752910  43.7316580  32.0484700  24.4725840
  44.4967490  31.2422770  25.5004780  45.5128720  33.9220460  26.0594630
  45.1842080  33.1072220  25.6796360  46.4611020  33.8790270  25.9360320
  34.7913950  45.7875740  25.4230920  34.0648010  45.1681030  25.3556870
  34.8523100  46.1816350  24.5529000  38.3959050  48.0020740  22.2080330
  38.9124070  47.3908100  21.6828590  39.0456430  48.5049520  22.6991340
  41.1354550  48.8929230  23.0349310  41.4232360  48.6383530  22.1582320
  41.6477770  48.3406590  23.6254880  42.3531560  32.6319430  23.6145820
  41.5703350  33.1064930  23.8942580  42.0594490  31.7274260  23.5059000
  46.9052630  33.3342530  21.6594910  47.3460720  33.2787630  20.8116510
  46.6360220  34.2500540  21.7305090  48.7691200  32.9657770  19.6703730
  48.7079600  32.0218990  19.5234750  49.5483230  33.0737860  20.2157190
  33.0743950  49.1050130  18.6327680  32.9065990  48.4720810  19.3309570
  32.2078460  49.3109530  18.2821870  33.6971970  32.9366910  16.1359540
  34.4551330  33.0495790  15.5623570  33.2349140  33.7736110  16.0902970
  40.2385780  35.0506180  19.1261850  39.4260290  34.6763070  18.7857730
  40.7427420  34.2951260  19.4283040  44.7410760  31.7148630  20.3644920
  45.3440130  32.2868840  20.8393440  44.0003750  32.2788070  20.1418820
  47.8845360  32.1170190  15.6385200  48.0795990  33.0153640  15.9052630
  47.0975230  31.8857270  16.1318150  34.6806650  47.7983360  16.0777820
  34.1554270  48.1791390  15.3739780  34.6051230  48.4234130  16.7987530
  36.0697120  33.4630960  14.6761510  36.5989880  32.6760760  14.5469460
  36.7025440  34.1422150  14.9097040  38.2634960  33.2006100  17.7306900
  37.6337700  32.4993410  17.8977030  37.7240100  33.9610230  17.5140060
  49.4371970  49.3570900  17.3991760  49.6124160  48.6708640  16.7552680
  48.7393540  49.8817950  17.0068430  38.3890520  32.4790080  30.1659390
  38.1074790  32.9823680  29.4020210  38.7710220  31.6811830  29.8001520
  37.2799620  49.7465740  14.9527070  38.0118440  49.4625020  14.4050960
  37.5393290  49.5079020  15.8426450  36.4414410  45.8630470  14.9573400
  35.8123290  46.3315570  15.5059230  36.5562240  45.0179690  15.3919590
  44.9905980  31.8943660  30.7439860  44.8771430  32.2138270  31.6391380
  45.8075720  32.2956170  30.4477140  42.0282170  41.6915150   2.9883870
  41.2524270  41.2115590   3.2782440  42.6795100  41.0120800   2.8140030
  36.0448000  42.0034960   3.8659630  35.2132880  41.7483670   4.2656140
  36.6528980  42.0745730   4.6017550  46.0489600  46.0975340   1.7683000
  45.5871130  45.3262580   2.0970170  46.8615150  46.1241410   2.2735450
  36.0249260  46.0375050   4.0617650  36.3277300  45.1472790   3.8827870
  36.7692850  46.5945270   3.8339900  32.4172960  39.5642500   3.5341720
  32.9889070  38.7964700   3.5345360  32.4174500  39.8631260   2.6248330
  41.4691160  44.3672340   2.9954030  41.3999440  43.4262280   2.8343160
  42.2311020  44.4573750   3.5676600  33.6597830  34.9726860   5.3210650
  33.4800670  34.0752610   5.6013410  33.2577910  35.5198730   5.9957600
  42.4996330  37.1742720   3.2222960  42.8761150  36.3014600   3.1096630
  42.4015840  37.5101420   2.3313400  34.2784500  37.4687360   3.9292990
  34.9594610  37.7325730   4.5480390  33.9632550  36.6288230   4.2631000
  38.4709070  38.5154720   3.0165580  38.9787290  39.0135690   3.6570600
  39.0022310  37.7389920   2.8404940  50.5720000  36.6859910   6.7194930
  49.8672170  37.0741620   6.2010040  50.8377920  37.3810200   7.3215860
  36.7545170  33.1553280   7.2829000  36.7563610  33.6725670   6.4774900
  35.9249480  32.6783460   7.2598930  38.0048020  42.7948460   5.4602500
  37.6717400  43.4217380   6.1023570  38.1814700  43.3210340   4.6804170
  46.5181930  36.6093540   2.9278840  45.8137500  36.8978430   3.5081950
  46.8794090  37.4193650   2.5678400  36.4360500  34.8663240   5.2899450
  36.7777310  35.7105290   4.9953320  35.4976310  35.0146980   5.4064790
  37.2167120  44.7629260   7.2751680  37.8341120  45.4380340   6.9936130
  36.3560240  45.1717240   7.1839180  48.1344710  46.2268670   5.1906320
  47.4508230  46.8967780   5.1822990  48.6739000  46.4249320   4.4251180
  49.5868850  36.0548330   3.3188050  48.6393760  36.0887310   3.4503480
  49.9118840  36.8687280   3.7037410  45.6703450  48.0712800   3.9051500
  45.6830610  47.6675090   3.0373760  45.1178670  48.8460090   3.8012930
  45.0688890  42.9742640   5.2334110  45.4857680  42.7602750   4.3987570
  45.7928710  43.2315430   5.8042730  49.0150990  41.3729860   5.3250350
  48.1869620  41.4422950   4.8500480  49.6101470  41.9584170   4.8566180
  45.9793000  38.1599180   6.2705220  45.5664180  38.9852890   6.5245210
  45.2468950  37.5744220   6.0781580  38.5807490  44.6326640   3.2963100
  38.2835780  44.0272110   2.6170880  39.5307310  44.6703950   3.1852460
  36.8254410  37.7202290   4.9122930  37.3769000  37.8297630   4.1376180
  37.3397920  38.0939890   5.6278160  46.6693100  48.2058510   6.9586200
  46.1923660  49.0130700   6.7658810  45.9854890  47.5536840   7.1112410
  37.6725920  44.3708330   9.9470900  36.7754450  44.5948300  10.1944300
  37.6978790  44.4943270   8.9982300  36.4997140  41.2421650   8.5228270
  36.3604910  42.1144450   8.8915670  35.6178500  40.8994460   8.3776210
  38.2977490  47.1843350  10.7313420  38.2692920  47.5886300   9.8641850
  38.1342460  46.2553710  10.5685020  50.2492310  47.9670450  12.0277590
  50.7252030  48.4453340  12.7066670  50.8699470  47.8987940  11.3023090
  32.4515790  43.0119200   4.4399180  32.5296210  43.1467970   3.4954900
  33.0657470  42.3035090   4.6327300  49.6525560  45.1583300   9.1877600
  49.7788620  44.9195180   8.2694780  49.6946940  44.3267840   9.6599680
  43.5142300  48.8611300   7.7572410  44.0286970  48.7719310   8.5594840
  42.6711380  49.2071000   8.0500320  49.5049570  37.2115760  10.1527340
  48.8893840  37.7195430   9.6242800  49.1845990  36.3114090  10.0953280
  32.5075310  44.0533370   6.9793640  32.6706350  43.5838730   6.1613010
  32.9727760  43.5456930   7.6442480  37.2794080  33.1839130   2.0154210
  36.8362230  33.9648670   1.6838730  37.8379070  33.5069020   2.7225150
  41.5663890  36.0507650   7.6189530  41.1043260  36.2590670   8.4309470
  41.1642000  35.2367000   7.3160200  46.5668400  37.2716600   8.7486190
  45.7161990  36.9722350   9.0695260  46.4070190  37.5158610   7.8370010
  43.6618110  38.7718350  10.8484980  43.9871520  37.9382100  10.5087210
  44.4498440  39.2946870  10.9963310  39.3169980  33.7286460   3.8743810
  39.6142310  34.6349290   3.7935830  39.8655540  33.2405240   3.2603380
  39.5107510  39.2058280  10.4095730  39.4151110  38.2653010  10.2596130
  40.3539490  39.4273350  10.0143800  34.6418050  35.6171950   8.5629510
  34.2481440  36.4647160   8.7702290  33.9536450  34.9798320   8.7538150
  41.2163100  35.7006920  11.6326250  40.5261420  35.5079120  12.2672340
  41.9595400  35.9841560  12.1650550  31.9435100  33.5400410   2.5959590
  31.6548150  34.1103270   3.3084570  32.6880860  33.0604860   2.9590820
  43.4926070  39.5405360   4.4680170  42.7607190  40.0492170   4.8170270
  43.0950410  38.7235340   4.1668950  39.9303460  36.2159560   2.8732660
  39.9339520  35.7749510   2.0237200  40.8254580  36.5376890   2.9804480
  35.7805840  36.0986050   1.8326870  35.4405890  36.5761280   2.5893920
  35.0183160  35.6451170   1.4727970  43.9551980  34.9939040   3.8803110
  43.9724720  35.4447690   4.7244960  43.7067560  34.0944680   4.0936550
  47.3822730  32.4071220   9.7189490  47.7068500  31.6760880  10.2447470
  47.4179240  32.0884860   8.8170480  34.0814290  43.4284800   9.1389450
  33.6969080  42.7878470   9.7372410  34.3926480  44.1320920   9.7084180
  40.2311430  40.2761340   4.6198070  40.5981560  39.8019910   5.3659410
  40.0416490  41.1502910   4.9606410  38.0210800  39.3169980   6.9382280
  37.7167870  40.1961960   7.1632640  38.9757260  39.3769770   6.9739720
  47.3080570  42.5196330   3.3275520  48.0279690  43.0151620   2.9371630
  47.1062390  41.8414220   2.6829390  42.6899370  42.5905390   9.2144520
  42.6236680  41.6701060   8.9602110  42.0604510  42.6880830   9.9289160
  34.0774530  40.1572720   8.0853640  33.7189470  40.8226570   8.6726980
  33.7829090  39.3256270   8.4566260  37.2787650  40.6156960  10.9693190
  36.9787790  40.7614140  10.0721010  38.0498890  40.0562250  10.8766580
  42.6216100  45.4125960   8.9648320  42.6360640  44.4806920   8.7467230
  41.9141200  45.4985720   9.6038090  48.8327310  42.0533300   8.3116900
  48.1075500  42.6462080   8.1146290  49.3602770  42.0456840   7.5130270
  42.0550000  47.0543530   6.0588820  42.6992220  47.2602910   6.7362240
  42.4179440  46.2931930   5.6059670  43.3282080  45.0575880   4.7766270
  43.9704310  44.3569040   4.8898440  43.8531430  45.8374320   4.5963160
  45.1019700  45.8570780   7.9802330  45.4375940  46.4437470   8.6580250
  44.1820040  45.7263490   8.2100120  32.6523100  33.6465960   8.7625740
  31.9381620  33.8462880   9.3678350  33.0718140  32.8705530   9.1340540
  32.9395690  47.6346220   9.7492270  33.0486810  46.6940960   9.6087660
  32.2876250  47.9000970   9.1006000  40.9308280  45.9062110  11.1490390
  40.6105150  45.1871350  11.6936080  40.2566640  46.5817180  11.2226450
  44.1461880  36.1388270   6.5127190  44.5142700  35.3183480   6.8406760
  43.2860080  36.1990160   6.9282840  41.1063870  38.7927860   6.7365160
  41.6049120  39.2673680   7.4017010  41.2486820  37.8691380   6.9435190
  48.3130730  35.0095820   7.5793550  47.8104330  35.7501220   7.9187360
  49.1287390  35.3979820   7.2630340  48.6078320  47.4237850   2.7009170
  48.7325740  48.2469020   3.1732980  49.4743880  47.2128580   2.3533320
  36.0795850  49.5169060   2.3726300  36.8158330  48.9684520   2.6434870
  36.4636770  50.3825070   2.2332290  35.0854130  48.7015130  11.5611880
  35.8866860  49.0227180  11.9747280  34.5705950  48.3410710  12.2831790
  43.9218760  44.8095000  11.5087290  43.3156920  44.8326600  10.7683040
  43.6172870  44.0778040  12.0454540  45.3519130  48.5375290  10.1196700
  46.3040880  48.4533310  10.0696940  45.2047350  49.2017000  10.7930490
  32.8051940  41.1888590  10.5047930  33.3090960  40.6095870  11.0764160
  32.0659360  41.4728820  11.0424300  39.8589880  42.5959580  10.0383450
  39.0935550  43.1644580   9.9538120  40.0405840  42.3035790   9.1451680
  47.0013230  44.3264910  10.5958470  47.7422700  44.6640670  10.0925930
  46.2385910  44.4956970  10.0428240  34.8375020  39.3318180  11.3998000
  34.8780360  39.0332050  12.3083230  35.6920520  39.7325790  11.2405520
  36.7780830  37.9110280   9.3672490  36.2477290  37.4201230   8.7395830
  37.4468900  38.3394480   8.8330420  45.6758890  42.3779740   9.1313680
  46.0899910  42.5324820   9.9804100  44.7409890  42.5034960   9.2939460
  46.1481060  39.7175900  11.1352830  46.7301830  38.9628220  11.0473310
  46.3242830  40.2483340  10.3584310  37.2653130  34.8772650   9.4469780
  37.1710000  34.2593400   8.7220650  36.6850520  35.6038940   9.2199690
  40.0314570  33.4345890   6.4797170  39.5831870  33.4570150   5.6342720
  39.3979770  33.0364910   7.0767470  40.4374120  42.3300220   7.1009610
  40.8562230  43.1732950   6.9285850  39.5182750  42.4672260   6.8716390
  42.7738020  40.0616400   8.4847450  42.8934230  39.4657540   9.2242290
  43.6332020  40.0986090   8.0648750  45.1125920  40.6153590   7.0609960
  44.5861140  41.1396210   6.4575100  45.4557260  41.2480980   7.6919690
  38.2881540  48.6353230   8.2167340  37.7502630  49.3599290   7.8976040
  38.5415500  48.1583570   7.4264680  39.5406790  36.6037750   9.7423270
  40.1306480  36.2953600  10.4301090  38.7227030  36.1317500   9.8983170
  44.3600220  36.2203560   9.9756290  43.6715740  35.5585100   9.9106280
  45.0806240  35.7741830  10.4204750  41.1443750  49.8704440   8.4753990
  41.0702450  50.7739580   8.7826360  40.2422590  49.5516340   8.4476060
  32.5471040  47.1979030   1.7787610  32.8774050  46.3300090   1.5466250
  32.9762040  47.4037550   2.6092570  33.0361250  48.0649620   4.5169240
  32.5992240  48.2450420   5.3493390  33.6038930  48.8224240   4.3750960
  48.6723430  47.5666620   8.8046550  48.0725420  47.6259180   8.0610470
  48.8017330  46.6271600   8.9343400  47.3575070  44.2918600   6.9022710
  46.5434910  44.7215760   7.1648500  47.7649270  44.9037010   6.2891760
  33.9061610  40.9622420   5.4161460  34.2734650  40.8749820   6.2957480
  33.3372430  40.1988970   5.3168320  48.7065470  39.4306800   8.4291930
  48.4751560  39.2019550   7.5289880  48.9670020  40.3506350   8.3836820
  33.4577610  37.8731510   9.3219880  32.5633660  37.8398270   9.6613590
  33.9975160  38.0718300  10.0871130  47.1453540  34.6563230  11.2071630
  48.0223720  34.6646630  11.5905630  47.1574380  33.9194070  10.5963980
  48.5916810  38.5092770   2.0959650  49.1154290  38.0155420   1.4649820
  49.1776230  38.6443130   2.8407220  48.7706530  38.5932640   5.6179200
  47.8209240  38.5596180   5.7324190  48.9519540  39.5032750   5.3828970
  33.9617320  32.1479840   3.6703100  34.6093510  31.5977220   3.2298260
  34.3819160  32.4022990   4.4918910  47.8569660  32.3421200   7.0272740
  48.4941880  32.9555340   7.3931930  48.0044550  32.3781860   6.0821970
  33.7149320  32.3035510   6.4128420  33.3664140  32.7599330   7.1786600
  33.3837020  31.4092640   6.4950850  35.3213690  45.4755110  10.5781610
  35.2783320  45.1048020  11.4596070  35.4524700  46.4132680  10.7183430
  39.0219720  47.0314700   6.1791330  38.7811080  47.2989260   5.2921850
  39.9622360  47.2020430   6.2342190  41.2274140  33.4947390   9.9347840
  41.1663030  34.0869220  10.6843250  42.1674520  33.3873350   9.7898100
  43.8648700  33.1517450   9.5740130  44.4789110  33.4696740   8.9121210
  44.4098260  32.6666040  10.1935990  50.2823880  49.0509080   6.9801970
  49.7882160  49.4477950   6.2629100  49.6737170  48.4258290   7.3739250
  34.3869960  31.8311710   9.6879190  34.9352950  31.6499760   8.9245300
  34.4525270  31.0405820  10.2235500  35.1601720  48.4217360   7.6979390
  34.5662040  48.2902060   8.4369430  35.1525560  47.5855500   7.2321490
  44.6056740  31.7149590   5.9009420  43.7316580  32.0484700   5.6982350
  44.4967490  31.2422770   6.7261290  45.5128720  33.9220460   7.2851140
  45.1842080  33.1072220   6.9052870  46.4611020  33.8790270   7.1616830
  47.9663330  49.6932500   4.2588710  47.5066300  50.4448310   3.8846730
  47.3375790  48.9738970   4.2003510  34.7913950  45.7875740   6.6487430
  34.0648010  45.1681030   6.5813380  34.8523100  46.1816350   5.7785510
  38.3959050  48.0020740   3.4336840  38.9124070  47.3908100   2.9085100
  39.0456430  48.5049520   3.9247850  41.1354550  48.8929230   4.2605820
  41.4232360  48.6383530   3.3838830  41.6477770  48.3406590   4.8511390
  42.3531560  32.6319430   4.8402330  41.5703350  33.1064930   5.1199090
  42.0594490  31.7274260   4.7315510  46.9052630  33.3342530   2.8851420
  47.3460720  33.2787630   2.0373020  46.6360220  34.2500540   2.9561600
  41.2026910  49.8145330  11.6274020  42.1294220  49.5789600  11.6709980
  41.1877340  50.6417330  11.1460050  38.3890520  32.4790080  11.3915900
  38.1074790  32.9823680  10.6276720  38.7710220  31.6811830  11.0258030
  44.9905980  31.8943660  11.9696370  44.8771430  32.2138270  12.8647890
  45.8075720  32.2956170  11.6733650  47.7704470  49.0415190  11.4515060
  48.5629790  48.5464420  11.2441020  48.0637620  49.7205330  12.0590670
  43.8964130  21.1392640  57.4305070  43.8158180  20.2247250  57.1596780
  43.4828550  21.6359710  56.7244780  42.0282170  22.9171660  59.3114340
  41.2524270  22.4372100  59.6012910  42.6795100  22.2377310  59.1370500
  46.0489600  27.3231850  58.0913470  45.5871130  26.5519090  58.4200640
  46.8615150  27.3497920  58.5965920  34.4539950  18.1893360  53.9732490
  33.5656650  18.5309330  53.8712370  34.7381140  17.9893680  53.0813320
  32.4172960  20.7899010  59.8572190  32.9889070  20.0221210  59.8575830
  32.4174500  21.0887770  58.9478800  42.2752910  29.6089860  57.7117460
  41.6564350  30.0647360  57.1411900  43.1304690  29.7641320  57.3107160
  41.4691160  25.5928850  59.3184500  41.3999440  24.6518790  59.1573630
  42.2311020  25.6830260  59.8907070  42.4996330  18.3999230  59.5453430
  42.8761150  17.5271110  59.4327100  42.4015840  18.7357930  58.6543870
  36.6301340  16.7724860  55.0070870  36.7368090  17.6728590  55.3139630
  35.7193700  16.7242830  54.7165520  46.2820450  15.8949670  56.4781770
  47.1030070  15.4046240  56.5207250  46.3154530  16.4847330  57.2313610
  38.4709070  19.7411230  59.3396050  38.9787290  20.2392200  59.9801070
  39.0022310  18.9646430  59.1635410  43.1416260  24.4929100  55.1049370
  42.5233530  24.9578550  54.5412090  43.6539510  25.1856580  55.5218880
  46.5181930  17.8350050  59.2509310  45.8137500  18.1234940  59.8312420
  46.8794090  18.6450160  58.8908870  32.5099460  25.1785630  52.4789000
  32.1327440  25.6672730  51.7473900  32.7672530  25.8510910  53.1095530
  49.5868850  17.2804840  59.6418520  48.6393760  17.3143820  59.7733950
  49.9118840  18.0943790  60.0267880  40.1188390  13.5802020  57.9374510
  40.4263370  13.0248910  57.2210010  39.1889090  13.7146480  57.7547500
  45.6703450  29.2969310  60.2281970  45.6830610  28.8931600  59.3604230
  45.1178670  30.0716600  60.1243400  46.9648870  26.0185530  55.3172140
  46.8545200  25.0759860  55.4421560  46.9617120  26.3801170  56.2034900
  42.5069150  21.6450850  54.6734630  41.5798430  21.5788230  54.9023100
  42.6593970  22.5830980  54.5589870  42.4938230  17.9167850  51.6701790
  41.5541900  18.0781810  51.7554250  42.8121490  18.6353530  51.1237780
  46.5366440  23.2071150  55.1769880  45.9178860  22.8690700  54.5296180
  46.5190890  22.5630910  55.8849070  38.1125790  22.1715590  57.4554360
  37.7082790  21.4592840  56.9600260  38.1988910  21.8268830  58.3442400
  38.5807490  25.8583150  59.6193570  38.2835780  25.2528620  58.9401350
  39.5307310  25.8960460  59.5082930  44.7131140  22.4457960  52.1842630
  45.1524420  21.6080390  52.0380450  45.4259560  23.0787360  52.2706770
  42.8226520  27.3854030  56.1523870  43.2622430  28.1278360  55.7379260
  42.7613410  27.6280600  57.0762830  48.2948280  13.7000770  50.4983670
  47.9820940  13.7927600  51.3982740  49.0560750  14.2781800  50.4481100
  34.8130420  21.0660570  54.9561010  34.6928020  21.7922660  54.3442280
  34.5031310  20.2963480  54.4788920  33.6963420  25.9375900  57.1735830
  33.2891500  26.0790490  56.3189430  34.5876430  25.6536060  56.9707040
  45.4896700  30.3723150  53.5086880  45.3297840  30.0826090  54.4068710
  45.3243410  29.5963280  52.9732110  37.9685080  30.1521680  55.2858500
  37.7927560  29.2357220  55.0726300  37.1140820  30.5108970  55.5256300
  45.1922830  27.8810710  52.0684880  44.4987990  27.8788000  51.4087160
  45.9345690  27.4570030  51.6379050  44.7572760  29.5073420  56.1433370
  45.2129710  28.7262800  56.4571990  45.0965280  30.2180240  56.6874550
  37.2794080  14.4095640  58.3384680  36.8362230  15.1905180  58.0069200
  37.8379070  14.7325530  59.0455620  40.3952900  14.0306340  53.2190510
  39.7707080  14.0266210  53.9443820  40.3083020  13.1637300  52.8226480
  39.3169980  14.9542970  60.1974280  39.6142310  15.8605800  60.1166300
  39.8655540  14.4661750  59.5833850  37.0708300  19.5329210  56.0665930
  36.8449220  19.3166380  56.9712550  36.2900830  19.9657670  55.7211900
  44.3006060  19.5392580  54.6656580  43.7014950  20.2628380  54.4820200
  44.8485670  19.4769360  53.8833030  42.9070930  18.1756120  56.6959860
  43.3000500  18.4928320  55.8828550  43.2687780  17.2968000  56.8104380
  31.9435100  14.7656920  58.9190060  31.6548150  15.3359780  59.6315040
  32.6880860  14.2861370  59.2821290  32.1305330  18.7077040  50.1292780
  32.0480000  19.6507800  50.2707770  31.7788390  18.5651950  49.2505130
  39.9303460  17.4416070  59.1963130  39.9339520  17.0006020  58.3467670
  40.8254580  17.7633400  59.3034950  35.7805840  17.3242560  58.1557340
  35.4405890  17.8017790  58.9124390  35.0183160  16.8707680  57.7958440
  39.9923610  18.4428150  52.1869890  40.1136430  18.4014630  53.1355710
  39.6072120  19.3052300  52.0316620  39.0045110  20.7529290  51.5853190
  38.4362010  20.3047540  50.9589100  39.7134110  21.1122070  51.0518340
  33.0951920  16.2461540  57.0722010  32.8098840  15.8817210  57.9100630
  33.0330780  15.5142000  56.4585150  36.5492590  24.7487480  53.8579600
  35.7754850  24.2085100  53.6978320  37.2787220  24.2294090  53.5197360
  47.3080570  23.7452840  59.6505990  48.0279690  24.2408130  59.2602100
  47.1062390  23.0670730  59.0059860  42.7690510  15.1390800  53.7935380
  41.9555120  14.6403970  53.7180690  42.5752460  15.9789050  53.3771730
  45.4838900  19.5110450  52.0897540  46.3718520  19.8227680  51.9148880
  45.4543990  18.6382700  51.6978120  36.5929990  24.4167860  57.4958410
  37.1108660  23.6136120  57.4415300  36.1414010  24.3547000  58.3375240
  41.4799490  25.6834140  52.7685710  41.8215190  26.4276370  52.2729030
  40.6512200  25.9965260  53.1310540  47.7553170  20.8222290  51.5577400
  47.6716890  21.2536510  50.7073840  48.4747360  21.2820640  51.9904220
  48.7840420  27.6764550  54.2859530  48.1416580  27.0220170  54.5603250
  48.3971080  28.0819640  53.5100200  44.3626900  25.0049980  58.1331220
  44.7150720  24.4078110  57.4732590  43.4789230  24.6794210  58.3039470
  40.4490180  25.7647670  55.5401630  41.1361310  26.3116880  55.9209220
  39.6622600  26.3088400  55.5751240  32.5882580  21.3820490  51.0318710
  33.4577430  21.6645290  51.3154630  32.0972900  22.1956360  50.9167520
  39.7517390  22.7693700  55.1526990  40.2080170  23.5798950  55.3787180
  39.4005600  22.4516840  55.9845480  35.6529170  13.1131350  55.6249510
  35.5243800  13.1049250  56.5734430  34.8291190  13.4514440  55.2740520
  47.1737800  26.5681010  50.8235880  46.9475380  25.8511450  51.4160520
  46.7834000  26.3193450  49.9857630  32.9553830  30.5947870  51.5980340
  33.3151470  31.1937210  50.9437610  32.8146170  31.1407760  52.3715370
  46.7554050  24.4852950  52.4850040  46.4675750  24.9465640  53.2727920
  47.5506220  24.0250720  52.7534260  38.9722450  27.9779070  52.4154010
  38.9632550  28.7108760  51.7998520  38.0520810  27.7310650  52.5080970
  34.5729090  23.1993960  53.1600770  33.9657040  23.9392860  53.1696070
  35.0478440  23.2893320  52.3338970  47.5123910  16.3201720  53.6445220
  46.8837070  16.4247390  52.9303450  47.0175830  16.5398500  54.4339100
  41.9582050  28.0407310  51.0779200  42.0594030  27.8371300  50.1481180
  41.0583790  27.7865590  51.2826980  39.4807940  18.5987670  55.0603100
  38.7724090  19.0674010  55.5016710  39.7652420  17.9409680  55.6948290
  43.5123370  15.3238330  56.4998890  43.3891150  15.3424460  55.5508400
  44.4607930  15.3717270  56.6197290  40.6000160  30.5593630  55.7726870
  40.8541660  30.5215020  54.8506240  39.6512640  30.4326960  55.7655120
  37.6842960  16.9072750  52.4353810  38.5333490  17.3442900  52.3694000
  37.3174230  17.2193010  53.2625870  46.6052740  21.4785510  57.3485380
  45.6642880  21.4935740  57.5233070  46.9196810  20.6921470  57.7945680
  36.5834380  23.1605110  50.9089340  37.3497650  23.0486470  51.4714770
  36.6609070  22.4643080  50.2566110  35.2781140  20.5930180  51.5922230
  35.3584730  19.6457690  51.7039630  36.1700890  20.9237060  51.6982890
  48.6078320  28.6494360  59.0239640  48.7325740  29.4725530  59.4963450
  49.4743880  28.4385090  58.6763790  36.0795850  30.7425570  58.6956770
  36.8158330  30.1941030  58.9665340  36.4636770  31.6081580  58.5562760
  32.9641330  26.8099140  54.5698280  32.0381110  27.0520280  54.5603690
  33.4297760  27.6373400  54.4483030  39.1898160  29.9155880  50.5182340
  39.9826770  30.2044710  50.0664130  38.6702510  29.4848050  49.8394820
  48.2428330  29.1426010  51.9419080  47.9569840  28.7291150  51.1273260
  48.0447880  30.0713720  51.8219600  39.7075560  25.1359290  50.3824690
  39.6026200  24.5211640  51.1086070  39.5399780  24.6125180  49.5987700
  42.9478290  24.1979320  50.9866680  42.3988390  24.6448620  51.6309420
  43.5697550  23.6928570  51.5104350  38.6153410  23.1570240  52.8831980
  39.0369830  22.9910110  53.7263370  38.7404250  22.3470470  52.3887120
  41.1281050  22.1807850  50.1309080  41.6486710  21.4656870  49.7650230
  41.7749450  22.8193720  50.4309590  37.5112310  19.2303470  49.8290140
  37.3101370  18.3670830  50.1903480  37.3404360  19.1436830  48.8911740
  44.9900620  14.0411700  52.3577020  45.2702910  13.1979600  52.7136440
  44.2166350  14.2734810  52.8715770  36.3095110  16.3304090  49.8168020
  36.6121010  16.3371520  48.9087170  37.0489700  15.9801950  50.3135680
  39.5280040  15.2738710  50.8024220  39.1802040  14.5962700  50.2226670
  39.7292810  14.8128220  51.6167610  41.6929080  30.2619460  52.4210820
  42.5879870  30.6004430  52.4429580  41.7246710  29.5398870  51.7935100
  35.3325240  25.6346510  50.6497820  35.7700110  26.1776180  51.3055400
  35.8172970  24.8093460  50.6594160  32.5471040  28.4235540  58.1018080
  32.8774050  27.5556600  57.8696720  32.9762040  28.6294060  58.9323040
  37.1432960  26.7544550  55.7620050  36.8428500  26.6309520  56.6623960
  37.0370450  25.8953140  55.3535780  49.9124880  26.5340950  50.4646730
  49.0817840  26.6017600  50.9353960  50.0896710  27.4245070  50.1613590
  49.3681340  23.2788430  52.9680930  50.1300250  23.8485080  53.0740620
  49.3835710  22.7115630  53.7389240  32.8685680  21.8026360  57.1988590
  32.2134520  21.5338000  56.5548290  33.7063630  21.6930840  56.7490570
  50.3741310  24.1338530  57.8122860  50.7450140  23.3505850  57.4058830
  51.0143240  24.8227630  57.6340160  49.4200510  23.5722800  50.1253450
  49.6949350  24.4801680  49.9972670  49.2311250  23.5085330  51.0615440
  45.8176120  16.5967650  51.4207080  46.2361000  16.4098630  50.5803740
  45.5112180  15.7446700  51.7310010  49.3165850  21.5091790  55.1182880
  48.9409450  20.7419720  54.6864170  48.5868970  21.8914490  55.6057810
  32.0823760  19.0125290  53.1413920  31.1787840  19.2755490  52.9665580
  32.5664380  19.2836460  52.3613880  48.5916810  19.7349280  58.4190120
  49.1154290  19.2411930  57.7880290  49.1776230  19.8699640  59.1637690
  34.6250970  18.0690830  51.0508300  35.3342670  17.6474050  50.5655580
  33.9090910  18.1366060  50.4191650  34.2725130  14.1230160  50.0910950
  34.9953260  14.6639100  50.4092170  34.5449650  13.8493580  49.2152490
  48.0816780  18.9922630  54.3582530  48.5775900  18.7593500  55.1431410
  47.8832850  18.1534470  53.9420170  49.5103940  17.6283580  56.8920210
  49.4003220  17.4739620  57.8302480  50.2711530  17.1004520  56.6495620
  50.3994210  15.4591500  50.1326350  51.3243520  15.3272680  49.9244640
  50.3770000  15.5384320  51.0862800  50.4732700  16.2302160  52.7583060
  49.6784200  16.1647280  53.2875970  50.6775980  17.1652800  52.7468410
  47.4151120  30.2693710  56.7521450  48.0110190  29.9478280  56.0755870
  47.6729270  29.7965530  57.5434720  38.3959050  29.2277250  59.7567310
  38.9124070  28.6164610  59.2315570  39.0456430  29.7306030  60.2478320
  46.9052630  14.5599040  59.2081890  47.3460720  14.5044140  58.3603490
  46.6360220  15.4757050  59.2792070  48.7691200  14.1914280  57.2190710
  48.7079600  13.2475500  57.0721730  49.5483230  14.2994370  57.7644170
  33.0743950  30.3306640  56.1814660  32.9065990  29.6977320  56.8796550
  32.2078460  30.5366040  55.8308850  33.6971970  14.1623420  53.6846520
  34.4551330  14.2752300  53.1110550  33.2349140  14.9992620  53.6389950
  40.2385780  16.2762690  56.6748830  39.4260290  15.9019580  56.3344710
  40.7427420  15.5207770  56.9770020  44.7410760  12.9405140  57.9131900
  45.3440130  13.5125350  58.3880420  44.0003750  13.5044580  57.6905800
  47.8845360  13.3426700  53.1872180  48.0795990  14.2410150  53.4539610
  47.0975230  13.1113780  53.6805130  34.6806650  29.0239870  53.6264800
  34.1554270  29.4047900  52.9226760  34.6051230  29.6490640  54.3474510
  36.0697120  14.6887470  52.2248490  36.5989880  13.9017270  52.0956440
  36.7025440  15.3678660  52.4584020  38.2634960  14.4262610  55.2793880
  37.6337700  13.7249920  55.4464010  37.7240100  15.1866740  55.0627040
  49.4371970  30.5827410  54.9478740  49.6124160  29.8965150  54.3039660
  48.7393540  31.1074460  54.5555410  37.2799620  30.9722250  52.5014050
  38.0118440  30.6881530  51.9537940  37.5393290  30.7335530  53.3913430
  36.4414410  27.0886980  52.5060380  35.8123290  27.5572080  53.0546210
  36.5562240  26.2436200  52.9406570  46.0489600  27.3231850  39.3169980
  45.5871130  26.5519090  39.6457150  46.8615150  27.3497920  39.8222430
  34.4539950  18.1893360  35.1989000  33.5656650  18.5309330  35.0968880
  34.7381140  17.9893680  34.3069830  36.6301340  16.7724860  36.2327380
  36.7368090  17.6728590  36.5396140  35.7193700  16.7242830  35.9422030
  46.2820450  15.8949670  37.7038280  47.1030070  15.4046240  37.7463760
  46.3154530  16.4847330  38.4570120  43.1416260  24.4929100  36.3305880
  42.5233530  24.9578550  35.7668600  43.6539510  25.1856580  36.7475390
  32.5099460  25.1785630  33.7045510  32.1327440  25.6672730  32.9730410
  32.7672530  25.8510910  34.3352040  40.1188390  13.5802020  39.1631020
  40.4263370  13.0248910  38.4466520  39.1889090  13.7146480  38.9804010
  45.6703450  29.2969310  41.4538480  45.6830610  28.8931600  40.5860740
  45.1178670  30.0716600  41.3499910  46.9648870  26.0185530  36.5428650
  46.8545200  25.0759860  36.6678070  46.9617120  26.3801170  37.4291410
  42.5069150  21.6450850  35.8991140  41.5798430  21.5788230  36.1279610
  42.6593970  22.5830980  35.7846380  42.4938230  17.9167850  32.8958300
  41.5541900  18.0781810  32.9810760  42.8121490  18.6353530  32.3494290
  46.5366440  23.2071150  36.4026390  45.9178860  22.8690700  35.7552690
  46.5190890  22.5630910  37.1105580  37.6725920  25.5964840  47.4957880
  36.7754450  25.8204810  47.7431280  37.6978790  25.7199780  46.5469280
  44.7131140  22.4457960  33.4099140  45.1524420  21.6080390  33.2636960
  45.4259560  23.0787360  33.4963280  38.2977490  28.4099860  48.2800400
  38.2692920  28.8142810  47.4128830  38.1342460  27.4810220  48.1172000
  48.2948280  13.7000770  31.7240180  47.9820940  13.7927600  32.6239250
  49.0560750  14.2781800  31.6737610  34.8130420  21.0660570  36.1817520
  34.6928020  21.7922660  35.5698790  34.5031310  20.2963480  35.7045430
  50.2492310  29.1926960  49.5764570  50.7252030  29.6709850  50.2553650
  50.8699470  29.1244450  48.8510070  45.4896700  30.3723150  34.7343390
  45.3297840  30.0826090  35.6325220  45.3243410  29.5963280  34.1988620
  45.1922830  27.8810710  33.2941390  44.4987990  27.8788000  32.6343670
  45.9345690  27.4570030  32.8635560  44.7572760  29.5073420  37.3689880
  45.2129710  28.7262800  37.6828500  45.0965280  30.2180240  37.9131060
  49.5049570  18.4372270  47.7014320  48.8893840  18.9451940  47.1729780
  49.1845990  17.5370600  47.6440260  37.2794080  14.4095640  39.5641190
  36.8362230  15.1905180  39.2325710  37.8379070  14.7325530  40.2712130
  43.6618110  19.9974860  48.3971960  43.9871520  19.1638610  48.0574190
  44.4498440  20.5203380  48.5450290  40.3952900  14.0306340  34.4447020
  39.7707080  14.0266210  35.1700330  40.3083020  13.1637300  34.0482990
  37.0708300  19.5329210  37.2922440  36.8449220  19.3166380  38.1969060
  36.2900830  19.9657670  36.9468410  44.3006060  19.5392580  35.8913090
  43.7014950  20.2628380  35.7076710  44.8485670  19.4769360  35.1089540
  42.9070930  18.1756120  37.9216370  43.3000500  18.4928320  37.1085060
  43.2687780  17.2968000  38.0360890  41.2163100  16.9263430  49.1813230
  40.5261420  16.7335630  49.8159320  41.9595400  17.2098070  49.7137530
  31.9435100  14.7656920  40.1446570  31.6548150  15.3359780  40.8571550
  32.6880860  14.2861370  40.5077800  32.1305330  18.7077040  31.3549290
  32.0480000  19.6507800  31.4964280  31.7788390  18.5651950  30.4761640
  39.9303460  17.4416070  40.4219640  39.9339520  17.0006020  39.5724180
  40.8254580  17.7633400  40.5291460  35.7805840  17.3242560  39.3813850
  35.4405890  17.8017790  40.1380900  35.0183160  16.8707680  39.0214950
  39.9923610  18.4428150  33.4126400  40.1136430  18.4014630  34.3612220
  39.6072120  19.3052300  33.2573130  39.0045110  20.7529290  32.8109700
  38.4362010  20.3047540  32.1845610  39.7134110  21.1122070  32.2774850
  47.3822730  13.6327730  47.2676470  47.7068500  12.9017390  47.7934450
  47.4179240  13.3141370  46.3657460  33.0951920  16.2461540  38.2978520
  32.8098840  15.8817210  39.1357140  33.0330780  15.5142000  37.6841660
  36.5492590  24.7487480  35.0836110  35.7754850  24.2085100  34.9234830
  37.2787220  24.2294090  34.7453870  42.7690510  15.1390800  35.0191890
  41.9555120  14.6403970  34.9437200  42.5752460  15.9789050  34.6028240
  42.6899370  23.8161900  46.7631500  42.6236680  22.8957570  46.5089090
  42.0604510  23.9137340  47.4776140  45.4838900  19.5110450  33.3154050
  46.3718520  19.8227680  33.1405390  45.4543990  18.6382700  32.9234630
  41.4799490  25.6834140  33.9942220  41.8215190  26.4276370  33.4985540
  40.6512200  25.9965260  34.3567050  37.2787650  21.8413470  48.5180170
  36.9787790  21.9870650  47.6207990  38.0498890  21.2818760  48.4253560
  42.6216100  26.6382470  46.5135300  42.6360640  25.7063430  46.2954210
  41.9141200  26.7242230  47.1525070  47.7553170  20.8222290  32.7833910
  47.6716890  21.2536510  31.9330350  48.4747360  21.2820640  33.2160730
  48.7840420  27.6764550  35.5116040  48.1416580  27.0220170  35.7859760
  48.3971080  28.0819640  34.7356710  40.4490180  25.7647670  36.7658140
  41.1361310  26.3116880  37.1465730  39.6622600  26.3088400  36.8007750
  32.5882580  21.3820490  32.2575220  33.4577430  21.6645290  32.5411140
  32.0972900  22.1956360  32.1424030  39.7517390  22.7693700  36.3783500
  40.2080170  23.5798950  36.6043690  39.4005600  22.4516840  37.2101990
  35.6529170  13.1131350  36.8506020  35.5243800  13.1049250  37.7990940
  34.8291190  13.4514440  36.4997030  47.1737800  26.5681010  32.0492390
  46.9475380  25.8511450  32.6417030  46.7834000  26.3193450  31.2114140
  45.1019700  27.0827290  45.5289310  45.4375940  27.6693980  46.2067230
  44.1820040  26.9520000  45.7587100  32.9553830  30.5947870  32.8236850
  33.3151470  31.1937210  32.1694120  32.8146170  31.1407760  33.5971880
  32.6523100  14.8722470  46.3112720  31.9381620  15.0719390  46.9165330
  33.0718140  14.0962040  46.6827520  46.7554050  24.4852950  33.7106550
  46.4675750  24.9465640  34.4984430  47.5506220  24.0250720  33.9790770
  32.9395690  28.8602730  47.2979250  33.0486810  27.9197470  47.1574640
  32.2876250  29.1257480  46.6492980  40.9308280  27.1318620  48.6977370
  40.6105150  26.4127860  49.2423060  40.2566640  27.8073690  48.7713430
  38.9722450  27.9779070  33.6410520  38.9632550  28.7108760  33.0255030
  38.0520810  27.7310650  33.7337480  34.5729090  23.1993960  34.3857280
  33.9657040  23.9392860  34.3952580  35.0478440  23.2893320  33.5595480
  47.5123910  16.3201720  34.8701730  46.8837070  16.4247390  34.1559960
  47.0175830  16.5398500  35.6595610  41.9582050  28.0407310  32.3035710
  42.0594030  27.8371300  31.3737690  41.0583790  27.7865590  32.5083490
  39.4807940  18.5987670  36.2859610  38.7724090  19.0674010  36.7273220
  39.7652420  17.9409680  36.9204800  43.5123370  15.3238330  37.7255400
  43.3891150  15.3424460  36.7764910  44.4607930  15.3717270  37.8453800
  37.6842960  16.9072750  33.6610320  38.5333490  17.3442900  33.5950510
  37.3174230  17.2193010  34.4882380  36.5834380  23.1605110  32.1345850
  37.3497650  23.0486470  32.6971280  36.6609070  22.4643080  31.4822620
  35.2781140  20.5930180  32.8178740  35.3584730  19.6457690  32.9296140
  36.1700890  20.9237060  32.9239400  32.9641330  26.8099140  35.7954790
  32.0381110  27.0520280  35.7860200  33.4297760  27.6373400  35.6739540
  35.0854130  29.9271640  49.1098860  35.8866860  30.2483690  49.5234260
  34.5705950  29.5667220  49.8318770  39.1898160  29.9155880  31.7438850
  39.9826770  30.2044710  31.2920640  38.6702510  29.4848050  31.0651330
  43.9218760  26.0351510  49.0574270  43.3156920  26.0583110  48.3170020
  43.6172870  25.3034550  49.5941520  48.2428330  29.1426010  33.1675590
  47.9569840  28.7291150  32.3529770  48.0447880  30.0713720  33.0476110
  39.7075560  25.1359290  31.6081200  39.6026200  24.5211640  32.3342580
  39.5399780  24.6125180  30.8244210  42.9478290  24.1979320  32.2123190
  42.3988390  24.6448620  32.8565930  43.5697550  23.6928570  32.7360860
  47.0013230  25.5521420  48.1445450  47.7422700  25.8897180  47.6412910
  46.2385910  25.7213480  47.5915220  34.8375020  20.5574690  48.9484980
  34.8780360  20.2588560  49.8570210  35.6920520  20.9582300  48.7892500
  38.6153410  23.1570240  34.1088490  39.0369830  22.9910110  34.9519880
  38.7404250  22.3470470  33.6143630  41.1281050  22.1807850  31.3565590
  41.6486710  21.4656870  30.9906740  41.7749450  22.8193720  31.6566100
  45.6758890  23.6036250  46.6800660  46.0899910  23.7581330  47.5291080
  44.7409890  23.7291470  46.8426440  46.1481060  20.9432410  48.6839810
  46.7301830  20.1884730  48.5960290  46.3242830  21.4739850  47.9071290
  37.5112310  19.2303470  31.0546650  37.3101370  18.3670830  31.4159990
  37.3404360  19.1436830  30.1168250  38.2881540  29.8609740  45.7654320
  37.7502630  30.5855800  45.4463020  38.5415500  29.3840080  44.9751660
  44.3600220  17.4460070  47.5243270  43.6715740  16.7841610  47.4593260
  45.0806240  16.9998340  47.9691730  44.9900620  14.0411700  33.5833530
  45.2702910  13.1979600  33.9392950  44.2166350  14.2734810  34.0972280
  36.3095110  16.3304090  31.0424530  36.6121010  16.3371520  30.1343680
  37.0489700  15.9801950  31.5392190  39.5280040  15.2738710  32.0280730
  39.1802040  14.5962700  31.4483180  39.7292810  14.8128220  32.8424120
  41.6929080  30.2619460  33.6467330  42.5879870  30.6004430  33.6686090
  41.7246710  29.5398870  33.0191610  35.3325240  25.6346510  31.8754330
  35.7700110  26.1776180  32.5311910  35.8172970  24.8093460  31.8850670
  49.9124880  26.5340950  31.6903240  49.0817840  26.6017600  32.1610470
  50.0896710  27.4245070  31.3870100  49.3681340  23.2788430  34.1937440
  50.1300250  23.8485080  34.2997130  49.3835710  22.7115630  34.9645750
  32.8685680  21.8026360  38.4245100  32.2134520  21.5338000  37.7804800
  33.7063630  21.6930840  37.9747080  49.4200510  23.5722800  31.3509960
  49.6949350  24.4801680  31.2229180  49.2311250  23.5085330  32.2871950
  45.8176120  16.5967650  32.6463590  46.2361000  16.4098630  31.8060250
  45.5112180  15.7446700  32.9566520  49.3165850  21.5091790  36.3439390
  48.9409450  20.7419720  35.9120680  48.5868970  21.8914490  36.8314320
  47.1453540  15.8819740  48.7558610  48.0223720  15.8903140  49.1392610
  47.1574380  15.1450580  48.1450960  32.0823760  19.0125290  34.3670430
  31.1787840  19.2755490  34.1922090  32.5664380  19.2836460  33.5870390
  34.6250970  18.0690830  32.2764810  35.3342670  17.6474050  31.7912090
  33.9090910  18.1366060  31.6448160  34.2725130  14.1230160  31.3167460
  34.9953260  14.6639100  31.6348680  34.5449650  13.8493580  30.4409000
  48.0816780  18.9922630  35.5839040  48.5775900  18.7593500  36.3687920
  47.8832850  18.1534470  35.1676680  33.9617320  13.3736350  41.2190080
  34.6093510  12.8233730  40.7785240  34.3819160  13.6279500  42.0405890
  49.5103940  17.6283580  38.1176720  49.4003220  17.4739620  39.0558990
  50.2711530  17.1004520  37.8752130  50.3994210  15.4591500  31.3582860
  51.3243520  15.3272680  31.1501150  50.3770000  15.5384320  32.3119310
  50.4732700  16.2302160  33.9839570  49.6784200  16.1647280  34.5132480
  50.6775980  17.1652800  33.9724920  47.4151120  30.2693710  37.9777960
  48.0110190  29.9478280  37.3012380  47.6729270  29.7965530  38.7691230
  33.7149320  13.5292020  43.9615400  33.3664140  13.9855840  44.7273580
  33.3837020  12.6349150  44.0437830  35.3213690  26.7011620  48.1268590
  35.2783320  26.3304530  49.0083050  35.4524700  27.6389190  48.2670410
  43.8648700  14.3773960  47.1227110  44.4789110  14.6953250  46.4608190
  44.4098260  13.8922550  47.7422970  34.3869960  13.0568220  47.2366170
  34.9352950  12.8756270  46.4732280  34.4525270  12.2662330  47.7722480
  35.1601720  29.6473870  45.2466370  34.5662040  29.5158570  45.9856410
  35.1525560  28.8112010  44.7808470  44.6056740  12.9406100  43.4496400
  43.7316580  13.2741210  43.2469330  44.4967490  12.4679280  44.2748270
  45.5128720  15.1476970  44.8338120  45.1842080  14.3328730  44.4539850
  46.4611020  15.1046780  44.7103810  42.3531560  13.8575940  42.3889310
  41.5703350  14.3321440  42.6686070  42.0594490  12.9530770  42.2802490
  46.9052630  14.5599040  40.4338400  47.3460720  14.5044140  39.5860000
  46.6360220  15.4757050  40.5048580  48.7691200  14.1914280  38.4447220
  48.7079600  13.2475500  38.2978240  49.5483230  14.2994370  38.9900680
  33.6971970  14.1623420  34.9103030  34.4551330  14.2752300  34.3367060
  33.2349140  14.9992620  34.8646460  40.2385780  16.2762690  37.9005340
  39.4260290  15.9019580  37.5601220  40.7427420  15.5207770  38.2026530
  44.7410760  12.9405140  39.1388410  45.3440130  13.5125350  39.6136930
  44.0003750  13.5044580  38.9162310  47.8845360  13.3426700  34.4128690
  48.0795990  14.2410150  34.6796120  47.0975230  13.1113780  34.9061640
  34.6806650  29.0239870  34.8521310  34.1554270  29.4047900  34.1483270
  34.6051230  29.6490640  35.5731020  36.0697120  14.6887470  33.4505000
  36.5989880  13.9017270  33.3212950  36.7025440  15.3678660  33.6840530
  38.2634960  14.4262610  36.5050390  37.6337700  13.7249920  36.6720520
  37.7240100  15.1866740  36.2883550  49.4371970  30.5827410  36.1735250
  49.6124160  29.8965150  35.5296170  48.7393540  31.1074460  35.7811920
  38.3890520  13.7046590  48.9402880  38.1074790  14.2080190  48.1763700
  38.7710220  12.9068340  48.5745010  37.2799620  30.9722250  33.7270560
  38.0118440  30.6881530  33.1794450  37.5393290  30.7335530  34.6169940
  36.4414410  27.0886980  33.7316890  35.8123290  27.5572080  34.2802720
  36.5562240  26.2436200  34.1663080  44.9905980  13.1200170  49.5183350
  44.8771430  13.4394780  50.4134870  45.8075720  13.5212680  49.2220630
  43.8964130  21.1392640  19.8818090  43.8158180  20.2247250  19.6109800
  43.4828550  21.6359710  19.1757800  42.0282170  22.9171660  21.7627360
  41.2524270  22.4372100  22.0525930  42.6795100  22.2377310  21.5883520
  36.0448000  23.2291470  22.6403120  35.2132880  22.9740180  23.0399630
  36.6528980  23.3002240  23.3761040  46.0489600  27.3231850  20.5426490
  45.5871130  26.5519090  20.8713660  46.8615150  27.3497920  21.0478940
  36.0249260  27.2631560  22.8361140  36.3277300  26.3729300  22.6571360
  36.7692850  27.8201780  22.6083390  34.4539950  18.1893360  16.4245510
  33.5656650  18.5309330  16.3225390  34.7381140  17.9893680  15.5326340
  32.4172960  20.7899010  22.3085210  32.9889070  20.0221210  22.3088850
  32.4174500  21.0887770  21.3991820  42.2752910  29.6089860  20.1630480
  41.6564350  30.0647360  19.5924920  43.1304690  29.7641320  19.7620180
  41.4691160  25.5928850  21.7697520  41.3999440  24.6518790  21.6086650
  42.2311020  25.6830260  22.3420090  33.6597830  16.1983370  24.0954140
  33.4800670  15.3009120  24.3756900  33.2577910  16.7455240  24.7701090
  42.4996330  18.3999230  21.9966450  42.8761150  17.5271110  21.8840120
  42.4015840  18.7357930  21.1056890  36.6301340  16.7724860  17.4583890
  36.7368090  17.6728590  17.7652650  35.7193700  16.7242830  17.1678540
  46.2820450  15.8949670  18.9294790  47.1030070  15.4046240  18.9720270
  46.3154530  16.4847330  19.6826630  34.2784500  18.6943870  22.7036480
  34.9594610  18.9582240  23.3223880  33.9632550  17.8544740  23.0374490
  38.4709070  19.7411230  21.7909070  38.9787290  20.2392200  22.4314090
  39.0022310  18.9646430  21.6148430  50.5720000  17.9116420  25.4938420
  49.8672170  18.2998130  24.9753530  50.8377920  18.6066710  26.0959350
  36.7545170  14.3809790  26.0572490  36.7563610  14.8982180  25.2518390
  35.9249480  13.9039970  26.0342420  43.1416260  24.4929100  17.5562390
  42.5233530  24.9578550  16.9925110  43.6539510  25.1856580  17.9731900
  38.0048020  24.0204970  24.2345990  37.6717400  24.6473890  24.8767060
  38.1814700  24.5466850  23.4547660  46.5181930  17.8350050  21.7022330
  45.8137500  18.1234940  22.2825440  46.8794090  18.6450160  21.3421890
  36.4360500  16.0919750  24.0642940  36.7777310  16.9361800  23.7696810
  35.4976310  16.2403490  24.1808280  37.2167120  25.9885770  26.0495170
  37.8341120  26.6636850  25.7679620  36.3560240  26.3973750  25.9582670
  32.5099460  25.1785630  14.9302020  32.1327440  25.6672730  14.1986920
  32.7672530  25.8510910  15.5608550  48.1344710  27.4525180  23.9649810
  47.4508230  28.1224290  23.9566480  48.6739000  27.6505830  23.1994670
  49.5868850  17.2804840  22.0931540  48.6393760  17.3143820  22.2246970
  49.9118840  18.0943790  22.4780900  40.1188390  13.5802020  20.3887530
  40.4263370  13.0248910  19.6723030  39.1889090  13.7146480  20.2060520
  45.6703450  29.2969310  22.6794990  45.6830610  28.8931600  21.8117250
  45.1178670  30.0716600  22.5756420  46.9648870  26.0185530  17.7685160
  46.8545200  25.0759860  17.8934580  46.9617120  26.3801170  18.6547920
  45.0688890  24.1999150  24.0077600  45.4857680  23.9859260  23.1731060
  45.7928710  24.4571940  24.5786220  42.5069150  21.6450850  17.1247650
  41.5798430  21.5788230  17.3536120  42.6593970  22.5830980  17.0102890
  42.4938230  17.9167850  14.1214810  41.5541900  18.0781810  14.2067270
  42.8121490  18.6353530  13.5750800  49.0150990  22.5986370  24.0993840
  48.1869620  22.6679460  23.6243970  49.6101470  23.1840680  23.6309670
  46.5366440  23.2071150  17.6282900  45.9178860  22.8690700  16.9809200
  46.5190890  22.5630910  18.3362090  45.9793000  19.3855690  25.0448710
  45.5664180  20.2109400  25.2988700  45.2468950  18.8000730  24.8525070
  38.1125790  22.1715590  19.9067380  37.7082790  21.4592840  19.4113280
  38.1988910  21.8268830  20.7955420  38.5807490  25.8583150  22.0706590
  38.2835780  25.2528620  21.3914370  39.5307310  25.8960460  21.9595950
  36.8254410  18.9458800  23.6866420  37.3769000  19.0554140  22.9119670
  37.3397920  19.3196400  24.4021650  46.6693100  29.4315020  25.7329690
  46.1923660  30.2387210  25.5402300  45.9854890  28.7793350  25.8855900
  37.6725920  25.5964840  28.7214390  36.7754450  25.8204810  28.9687790
  37.6978790  25.7199780  27.7725790  44.7131140  22.4457960  14.6355650
  45.1524420  21.6080390  14.4893470  45.4259560  23.0787360  14.7219790
  36.4997140  22.4678160  27.2971760  36.3604910  23.3400960  27.6659160
  35.6178500  22.1250970  27.1519700  42.8226520  27.3854030  18.6036890
  43.2622430  28.1278360  18.1892280  42.7613410  27.6280600  19.5275850
  38.2977490  28.4099860  29.5056910  38.2692920  28.8142810  28.6385340
  38.1342460  27.4810220  29.3428510  48.2948280  13.7000770  12.9496690
  47.9820940  13.7927600  13.8495760  49.0560750  14.2781800  12.8994120
  34.8130420  21.0660570  17.4074030  34.6928020  21.7922660  16.7955300
  34.5031310  20.2963480  16.9301940  50.2492310  29.1926960  30.8021080
  50.7252030  29.6709850  31.4810160  50.8699470  29.1244450  30.0766580
  32.4515790  24.2375710  23.2142670  32.5296210  24.3724480  22.2698390
  33.0657470  23.5291600  23.4070790  33.6963420  25.9375900  19.6248850
  33.2891500  26.0790490  18.7702450  34.5876430  25.6536060  19.4220060
  49.6525560  26.3839810  27.9621090  49.7788620  26.1451690  27.0438270
  49.6946940  25.5524350  28.4343170  43.5142300  30.0867810  26.5315900
  44.0286970  29.9975820  27.3338330  42.6711380  30.4327510  26.8243810
  45.4896700  30.3723150  15.9599900  45.3297840  30.0826090  16.8581730
  45.3243410  29.5963280  15.4245130  37.9685080  30.1521680  17.7371520
  37.7927560  29.2357220  17.5239320  37.1140820  30.5108970  17.9769320
  45.1922830  27.8810710  14.5197900  44.4987990  27.8788000  13.8600180
  45.9345690  27.4570030  14.0892070  44.7572760  29.5073420  18.5946390
  45.2129710  28.7262800  18.9085010  45.0965280  30.2180240  19.1387570
  49.5049570  18.4372270  28.9270830  48.8893840  18.9451940  28.3986290
  49.1845990  17.5370600  28.8696770  32.5075310  25.2789880  25.7537130
  32.6706350  24.8095240  24.9356500  32.9727760  24.7713440  26.4185970
  37.2794080  14.4095640  20.7897700  36.8362230  15.1905180  20.4582220
  37.8379070  14.7325530  21.4968640  41.5663890  17.2764160  26.3933020
  41.1043260  17.4847180  27.2052960  41.1642000  16.4623510  26.0903690
  46.5668400  18.4973110  27.5229680  45.7161990  18.1978860  27.8438750
  46.4070190  18.7415120  26.6113500  43.6618110  19.9974860  29.6228470
  43.9871520  19.1638610  29.2830700  44.4498440  20.5203380  29.7706800
  40.3952900  14.0306340  15.6703530  39.7707080  14.0266210  16.3956840
  40.3083020  13.1637300  15.2739500  39.3169980  14.9542970  22.6487300
  39.6142310  15.8605800  22.5679320  39.8655540  14.4661750  22.0346870
  37.0708300  19.5329210  18.5178950  36.8449220  19.3166380  19.4225570
  36.2900830  19.9657670  18.1724920  44.3006060  19.5392580  17.1169600
  43.7014950  20.2628380  16.9333220  44.8485670  19.4769360  16.3346050
  39.5107510  20.4314790  29.1839220  39.4151110  19.4909520  29.0339620
  40.3539490  20.6529860  28.7887290  42.9070930  18.1756120  19.1472880
  43.3000500  18.4928320  18.3341570  43.2687780  17.2968000  19.2617400
  34.6418050  16.8428460  27.3373000  34.2481440  17.6903670  27.5445780
  33.9536450  16.2054830  27.5281640  41.2163100  16.9263430  30.4069740
  40.5261420  16.7335630  31.0415830  41.9595400  17.2098070  30.9394040
  31.9435100  14.7656920  21.3703080  31.6548150  15.3359780  22.0828060
  32.6880860  14.2861370  21.7334310  32.1305330  18.7077040  12.5805800
  32.0480000  19.6507800  12.7220790  31.7788390  18.5651950  11.7018150
  43.4926070  20.7661870  23.2423660  42.7607190  21.2748680  23.5913760
  43.0950410  19.9491850  22.9412440  39.9303460  17.4416070  21.6476150
  39.9339520  17.0006020  20.7980690  40.8254580  17.7633400  21.7547970
  35.7805840  17.3242560  20.6070360  35.4405890  17.8017790  21.3637410
  35.0183160  16.8707680  20.2471460  39.9923610  18.4428150  14.6382910
  40.1136430  18.4014630  15.5868730  39.6072120  19.3052300  14.4829640
  43.9551980  16.2195550  22.6546600  43.9724720  16.6704200  23.4988450
  43.7067560  15.3201190  22.8680040  39.0045110  20.7529290  14.0366210
  38.4362010  20.3047540  13.4102120  39.7134110  21.1122070  13.5031360
  47.3822730  13.6327730  28.4932980  47.7068500  12.9017390  29.0190960
  47.4179240  13.3141370  27.5913970  34.0814290  24.6541310  27.9132940
  33.6969080  24.0134980  28.5115900  34.3926480  25.3577430  28.4827670
  40.2311430  21.5017850  23.3941560  40.5981560  21.0276420  24.1402900
  40.0416490  22.3759420  23.7349900  33.0951920  16.2461540  19.5235030
  32.8098840  15.8817210  20.3613650  33.0330780  15.5142000  18.9098170
  38.0210800  20.5426490  25.7125770  37.7167870  21.4218470  25.9376130
  38.9757260  20.6026280  25.7483210  36.5492590  24.7487480  16.3092620
  35.7754850  24.2085100  16.1491340  37.2787220  24.2294090  15.9710380
  47.3080570  23.7452840  22.1019010  48.0279690  24.2408130  21.7115120
  47.1062390  23.0670730  21.4572880  42.7690510  15.1390800  16.2448400
  41.9555120  14.6403970  16.1693710  42.5752460  15.9789050  15.8284750
  42.6899370  23.8161900  27.9888010  42.6236680  22.8957570  27.7345600
  42.0604510  23.9137340  28.7032650  45.4838900  19.5110450  14.5410560
  46.3718520  19.8227680  14.3661900  45.4543990  18.6382700  14.1491140
  36.5929990  24.4167860  19.9471430  37.1108660  23.6136120  19.8928320
  36.1414010  24.3547000  20.7888260  41.4799490  25.6834140  15.2198730
  41.8215190  26.4276370  14.7242050  40.6512200  25.9965260  15.5823560
  34.0774530  21.3829230  26.8597130  33.7189470  22.0483080  27.4470470
  33.7829090  20.5512780  27.2309750  37.2787650  21.8413470  29.7436680
  36.9787790  21.9870650  28.8464500  38.0498890  21.2818760  29.6510070
  42.6216100  26.6382470  27.7391810  42.6360640  25.7063430  27.5210720
  41.9141200  26.7242230  28.3781580  47.7553170  20.8222290  14.0090420
  47.6716890  21.2536510  13.1586860  48.4747360  21.2820640  14.4417240
  48.8327310  23.2789810  27.0860390  48.1075500  23.8718590  26.8889780
  49.3602770  23.2713350  26.2873760  48.7840420  27.6764550  16.7372550
  48.1416580  27.0220170  17.0116270  48.3971080  28.0819640  15.9613220
  44.3626900  25.0049980  20.5844240  44.7150720  24.4078110  19.9245610
  43.4789230  24.6794210  20.7552490  40.4490180  25.7647670  17.9914650
  41.1361310  26.3116880  18.3722240  39.6622600  26.3088400  18.0264260
  32.5882580  21.3820490  13.4831730  33.4577430  21.6645290  13.7667650
  32.0972900  22.1956360  13.3680540  39.7517390  22.7693700  17.6040010
  40.2080170  23.5798950  17.8300200  39.4005600  22.4516840  18.4358500
  42.0550000  28.2800040  24.8332310  42.6992220  28.4859420  25.5105730
  42.4179440  27.5188440  24.3803160  35.6529170  13.1131350  18.0762530
  35.5243800  13.1049250  19.0247450  34.8291190  13.4514440  17.7253540
  43.3282080  26.2832390  23.5509760  43.9704310  25.5825550  23.6641930
  43.8531430  27.0630830  23.3706650  47.1737800  26.5681010  13.2748900
  46.9475380  25.8511450  13.8673540  46.7834000  26.3193450  12.4370650
  45.1019700  27.0827290  26.7545820  45.4375940  27.6693980  27.4323740
  44.1820040  26.9520000  26.9843610  32.9553830  30.5947870  14.0493360
  33.3151470  31.1937210  13.3950630  32.8146170  31.1407760  14.8228390
  32.6523100  14.8722470  27.5369230  31.9381620  15.0719390  28.1421840
  33.0718140  14.0962040  27.9084030  46.7554050  24.4852950  14.9363060
  46.4675750  24.9465640  15.7240940  47.5506220  24.0250720  15.2047280
  32.9395690  28.8602730  28.5235760  33.0486810  27.9197470  28.3831150
  32.2876250  29.1257480  27.8749490  40.9308280  27.1318620  29.9233880
  40.6105150  26.4127860  30.4679570  40.2566640  27.8073690  29.9969940
  38.9722450  27.9779070  14.8667030  38.9632550  28.7108760  14.2511540
  38.0520810  27.7310650  14.9593990  34.5729090  23.1993960  15.6113790
  33.9657040  23.9392860  15.6209090  35.0478440  23.2893320  14.7851990
  44.1461880  17.3644780  25.2870680  44.5142700  16.5439990  25.6150250
  43.2860080  17.4246670  25.7026330  47.5123910  16.3201720  16.0958240
  46.8837070  16.4247390  15.3816470  47.0175830  16.5398500  16.8852120
  41.9582050  28.0407310  13.5292220  42.0594030  27.8371300  12.5994200
  41.0583790  27.7865590  13.7340000  39.4807940  18.5987670  17.5116120
  38.7724090  19.0674010  17.9529730  39.7652420  17.9409680  18.1461310
  41.1063870  20.0184370  25.5108650  41.6049120  20.4930190  26.1760500
  41.2486820  19.0947890  25.7178680  43.5123370  15.3238330  18.9511910
  43.3891150  15.3424460  18.0021420  44.4607930  15.3717270  19.0710310
  40.6000160  30.5593630  18.2239890  40.8541660  30.5215020  17.3019260
  39.6512640  30.4326960  18.2168140  37.6842960  16.9072750  14.8866830
  38.5333490  17.3442900  14.8207020  37.3174230  17.2193010  15.7138890
  48.3130730  16.2352330  26.3537040  47.8104330  16.9757730  26.6930850
  49.1287390  16.6236330  26.0373830  46.6052740  21.4785510  19.7998400
  45.6642880  21.4935740  19.9746090  46.9196810  20.6921470  20.2458700
  36.5834380  23.1605110  13.3602360  37.3497650  23.0486470  13.9227790
  36.6609070  22.4643080  12.7079130  35.2781140  20.5930180  14.0435250
  35.3584730  19.6457690  14.1552650  36.1700890  20.9237060  14.1495910
  48.6078320  28.6494360  21.4752660  48.7325740  29.4725530  21.9476470
  49.4743880  28.4385090  21.1276810  36.0795850  30.7425570  21.1469790
  36.8158330  30.1941030  21.4178360  36.4636770  31.6081580  21.0075780
  32.9641330  26.8099140  17.0211300  32.0381110  27.0520280  17.0116710
  33.4297760  27.6373400  16.8996050  35.0854130  29.9271640  30.3355370
  35.8866860  30.2483690  30.7490770  34.5705950  29.5667220  31.0575280
  39.1898160  29.9155880  12.9695360  39.9826770  30.2044710  12.5177150
  38.6702510  29.4848050  12.2907840  43.9218760  26.0351510  30.2830780
  43.3156920  26.0583110  29.5426530  43.6172870  25.3034550  30.8198030
  45.3519130  29.7631800  28.8940190  46.3040880  29.6789820  28.8440430
  45.2047350  30.4273510  29.5673980  48.2428330  29.1426010  14.3932100
  47.9569840  28.7291150  13.5786280  48.0447880  30.0713720  14.2732620
  32.8051940  22.4145100  29.2791420  33.3090960  21.8352380  29.8507650
  32.0659360  22.6985330  29.8167790  39.7075560  25.1359290  12.8337710
  39.6026200  24.5211640  13.5599090  39.5399780  24.6125180  12.0500720
  39.8589880  23.8216090  28.8126940  39.0935550  24.3901090  28.7281610
  40.0405840  23.5292300  27.9195170  42.9478290  24.1979320  13.4379700
  42.3988390  24.6448620  14.0822440  43.5697550  23.6928570  13.9617370
  47.0013230  25.5521420  29.3701960  47.7422700  25.8897180  28.8669420
  46.2385910  25.7213480  28.8171730  34.8375020  20.5574690  30.1741490
  34.8780360  20.2588560  31.0826720  35.6920520  20.9582300  30.0149010
  38.6153410  23.1570240  15.3345000  39.0369830  22.9910110  16.1776390
  38.7404250  22.3470470  14.8400140  36.7780830  19.1366790  28.1415980
  36.2477290  18.6457740  27.5139320  37.4468900  19.5650990  27.6073910
  41.1281050  22.1807850  12.5822100  41.6486710  21.4656870  12.2163250
  41.7749450  22.8193720  12.8822610  45.6758890  23.6036250  27.9057170
  46.0899910  23.7581330  28.7547590  44.7409890  23.7291470  28.0682950
  46.1481060  20.9432410  29.9096320  46.7301830  20.1884730  29.8216800
  46.3242830  21.4739850  29.1327800  37.2653130  16.1029160  28.2213270
  37.1710000  15.4849910  27.4964140  36.6850520  16.8295450  27.9943180
  40.0314570  14.6602400  25.2540660  39.5831870  14.6826660  24.4086210
  39.3979770  14.2621420  25.8510960  40.4374120  23.5556730  25.8753100
  40.8562230  24.3989460  25.7029340  39.5182750  23.6928770  25.6459880
  42.7738020  21.2872910  27.2590940  42.8934230  20.6914050  27.9985780
  43.6332020  21.3242600  26.8392240  45.1125920  21.8410100  25.8353450
  44.5861140  22.3652720  25.2318590  45.4557260  22.4737490  26.4663180
  37.5112310  19.2303470  12.2803160  37.3101370  18.3670830  12.6416500
  37.3404360  19.1436830  11.3424760  38.2881540  29.8609740  26.9910830
  37.7502630  30.5855800  26.6719530  38.5415500  29.3840080  26.2008170
  44.3600220  17.4460070  28.7499780  43.6715740  16.7841610  28.6849770
  45.0806240  16.9998340  29.1948240  44.9900620  14.0411700  14.8090040
  45.2702910  13.1979600  15.1649460  44.2166350  14.2734810  15.3228790
  36.3095110  16.3304090  12.2681040  36.6121010  16.3371520  11.3600190
  37.0489700  15.9801950  12.7648700  41.1443750  31.0960950  27.2497480
  41.0702450  31.9996090  27.5569850  40.2422590  30.7772850  27.2219550
  39.5280040  15.2738710  13.2537240  39.1802040  14.5962700  12.6739690
  39.7292810  14.8128220  14.0680630  41.6929080  30.2619460  14.8723840
  42.5879870  30.6004430  14.8942600  41.7246710  29.5398870  14.2448120
  35.3325240  25.6346510  13.1010840  35.7700110  26.1776180  13.7568420
  35.8172970  24.8093460  13.1107180  32.5471040  28.4235540  20.5531100
  32.8774050  27.5556600  20.3209740  32.9762040  28.6294060  21.3836060
  37.1432960  26.7544550  18.2133070  36.8428500  26.6309520  19.1136980
  37.0370450  25.8953140  17.8048800  33.0361250  29.2906130  23.2912730
  32.5992240  29.4706930  24.1236880  33.6038930  30.0480750  23.1494450
  48.6723430  28.7923130  27.5790040  48.0725420  28.8515690  26.8353960
  48.8017330  27.8528110  27.7086890  49.9124880  26.5340950  12.9159750
  49.0817840  26.6017600  13.3866980  50.0896710  27.4245070  12.6126610
  49.3681340  23.2788430  15.4193950  50.1300250  23.8485080  15.5253640
  49.3835710  22.7115630  16.1902260  32.8685680  21.8026360  19.6501610
  32.2134520  21.5338000  19.0061310  33.7063630  21.6930840  19.2003590
  50.3741310  24.1338530  20.2635880  50.7450140  23.3505850  19.8571850
  51.0143240  24.8227630  20.0853180  47.3575070  25.5175110  25.6766200
  46.5434910  25.9472270  25.9391990  47.7649270  26.1293520  25.0635250
  49.4200510  23.5722800  12.5766470  49.6949350  24.4801680  12.4485690
  49.2311250  23.5085330  13.5128460  45.8176120  16.5967650  13.8720100
  46.2361000  16.4098630  13.0316760  45.5112180  15.7446700  14.1823030
  49.3165850  21.5091790  17.5695900  48.9409450  20.7419720  17.1377190
  48.5868970  21.8914490  18.0570830  33.9061610  22.1878930  24.1904950
  34.2734650  22.1006330  25.0700970  33.3372430  21.4245480  24.0911810
  48.7065470  20.6563310  27.2035420  48.4751560  20.4276060  26.3033370
  48.9670020  21.5762860  27.1580310  33.4577610  19.0988020  28.0963370
  32.5633660  19.0654780  28.4357080  33.9975160  19.2974810  28.8614620
  47.1453540  15.8819740  29.9815120  48.0223720  15.8903140  30.3649120
  47.1574380  15.1450580  29.3707470  32.0823760  19.0125290  15.5926940
  31.1787840  19.2755490  15.4178600  32.5664380  19.2836460  14.8126900
  48.5916810  19.7349280  20.8703140  49.1154290  19.2411930  20.2393310
  49.1776230  19.8699640  21.6150710  48.7706530  19.8189150  24.3922690
  47.8209240  19.7852690  24.5067680  48.9519540  20.7289260  24.1572460
  34.6250970  18.0690830  13.5021320  35.3342670  17.6474050  13.0168600
  33.9090910  18.1366060  12.8704670  34.2725130  14.1230160  12.5423970
  34.9953260  14.6639100  12.8605190  34.5449650  13.8493580  11.6665510
  48.0816780  18.9922630  16.8095550  48.5775900  18.7593500  17.5944430
  47.8832850  18.1534470  16.3933190  33.9617320  13.3736350  22.4446590
  34.6093510  12.8233730  22.0041750  34.3819160  13.6279500  23.2662400
  49.5103940  17.6283580  19.3433230  49.4003220  17.4739620  20.2815500
  50.2711530  17.1004520  19.1008640  47.8569660  13.5677710  25.8016230
  48.4941880  14.1811850  26.1675420  48.0044550  13.6038370  24.8565460
  50.3994210  15.4591500  12.5839370  51.3243520  15.3272680  12.3757660
  50.3770000  15.5384320  13.5375820  50.4732700  16.2302160  15.2096080
  49.6784200  16.1647280  15.7388990  50.6775980  17.1652800  15.1981430
  47.4151120  30.2693710  19.2034470  48.0110190  29.9478280  18.5268890
  47.6729270  29.7965530  19.9947740  33.7149320  13.5292020  25.1871910
  33.3664140  13.9855840  25.9530090  33.3837020  12.6349150  25.2694340
  35.3213690  26.7011620  29.3525100  35.2783320  26.3304530  30.2339560
  35.4524700  27.6389190  29.4926920  39.0219720  28.2571210  24.9534820
  38.7811080  28.5245770  24.0665340  39.9622360  28.4276940  25.0085680
  41.2274140  14.7203900  28.7091330  41.1663030  15.3125730  29.4586740
  42.1674520  14.6129860  28.5641590  43.8648700  14.3773960  28.3483620
  44.4789110  14.6953250  27.6864700  44.4098260  13.8922550  28.9679480
  50.2823880  30.2765590  25.7545460  49.7882160  30.6734460  25.0372590
  49.6737170  29.6514800  26.1482740  34.3869960  13.0568220  28.4622680
  34.9352950  12.8756270  27.6988790  34.4525270  12.2662330  28.9978990
  35.1601720  29.6473870  26.4722880  34.5662040  29.5158570  27.2112920
  35.1525560  28.8112010  26.0064980  44.6056740  12.9406100  24.6752910
  43.7316580  13.2741210  24.4725840  44.4967490  12.4679280  25.5004780
  45.5128720  15.1476970  26.0594630  45.1842080  14.3328730  25.6796360
  46.4611020  15.1046780  25.9360320  47.9663330  30.9189010  23.0332200
  47.5066300  31.6704820  22.6590220  47.3375790  30.1995480  22.9747000
  34.7913950  27.0132250  25.4230920  34.0648010  26.3937540  25.3556870
  34.8523100  27.4072860  24.5529000  38.3959050  29.2277250  22.2080330
  38.9124070  28.6164610  21.6828590  39.0456430  29.7306030  22.6991340
  41.1354550  30.1185740  23.0349310  41.4232360  29.8640040  22.1582320
  41.6477770  29.5663100  23.6254880  42.3531560  13.8575940  23.6145820
  41.5703350  14.3321440  23.8942580  42.0594490  12.9530770  23.5059000
  46.9052630  14.5599040  21.6594910  47.3460720  14.5044140  20.8116510
  46.6360220  15.4757050  21.7305090  48.7691200  14.1914280  19.6703730
  48.7079600  13.2475500  19.5234750  49.5483230  14.2994370  20.2157190
  33.0743950  30.3306640  18.6327680  32.9065990  29.6977320  19.3309570
  32.2078460  30.5366040  18.2821870  33.6971970  14.1623420  16.1359540
  34.4551330  14.2752300  15.5623570  33.2349140  14.9992620  16.0902970
  40.2385780  16.2762690  19.1261850  39.4260290  15.9019580  18.7857730
  40.7427420  15.5207770  19.4283040  44.7410760  12.9405140  20.3644920
  45.3440130  13.5125350  20.8393440  44.0003750  13.5044580  20.1418820
  47.8845360  13.3426700  15.6385200  48.0795990  14.2410150  15.9052630
  47.0975230  13.1113780  16.1318150  34.6806650  29.0239870  16.0777820
  34.1554270  29.4047900  15.3739780  34.6051230  29.6490640  16.7987530
  36.0697120  14.6887470  14.6761510  36.5989880  13.9017270  14.5469460
  36.7025440  15.3678660  14.9097040  38.2634960  14.4262610  17.7306900
  37.6337700  13.7249920  17.8977030  37.7240100  15.1866740  17.5140060
  41.2026910  31.0401840  30.4017510  42.1294220  30.8046110  30.4453470
  41.1877340  31.8673840  29.9203540  49.4371970  30.5827410  17.3991760
  49.6124160  29.8965150  16.7552680  48.7393540  31.1074460  17.0068430
  38.3890520  13.7046590  30.1659390  38.1074790  14.2080190  29.4020210
  38.7710220  12.9068340  29.8001520  37.2799620  30.9722250  14.9527070
  38.0118440  30.6881530  14.4050960  37.5393290  30.7335530  15.8426450
  36.4414410  27.0886980  14.9573400  35.8123290  27.5572080  15.5059230
  36.5562240  26.2436200  15.3919590  44.9905980  13.1200170  30.7439860
  44.8771430  13.4394780  31.6391380  45.8075720  13.5212680  30.4477140
  47.7704470  30.2671700  30.2258550  48.5629790  29.7720930  30.0184510
  48.0637620  30.9461840  30.8334160  42.0282170  22.9171660   2.9883870
  41.2524270  22.4372100   3.2782440  42.6795100  22.2377310   2.8140030
  36.0448000  23.2291470   3.8659630  35.2132880  22.9740180   4.2656140
  36.6528980  23.3002240   4.6017550  46.0489600  27.3231850   1.7683000
  45.5871130  26.5519090   2.0970170  46.8615150  27.3497920   2.2735450
  36.0249260  27.2631560   4.0617650  36.3277300  26.3729300   3.8827870
  36.7692850  27.8201780   3.8339900  32.4172960  20.7899010   3.5341720
  32.9889070  20.0221210   3.5345360  32.4174500  21.0887770   2.6248330
  41.4691160  25.5928850   2.9954030  41.3999440  24.6518790   2.8343160
  42.2311020  25.6830260   3.5676600  33.6597830  16.1983370   5.3210650
  33.4800670  15.3009120   5.6013410  33.2577910  16.7455240   5.9957600
  42.4996330  18.3999230   3.2222960  42.8761150  17.5271110   3.1096630
  42.4015840  18.7357930   2.3313400  34.2784500  18.6943870   3.9292990
  34.9594610  18.9582240   4.5480390  33.9632550  17.8544740   4.2631000
  38.4709070  19.7411230   3.0165580  38.9787290  20.2392200   3.6570600
  39.0022310  18.9646430   2.8404940  50.5720000  17.9116420   6.7194930
  49.8672170  18.2998130   6.2010040  50.8377920  18.6066710   7.3215860
  36.7545170  14.3809790   7.2829000  36.7563610  14.8982180   6.4774900
  35.9249480  13.9039970   7.2598930  38.0048020  24.0204970   5.4602500
  37.6717400  24.6473890   6.1023570  38.1814700  24.5466850   4.6804170
  46.5181930  17.8350050   2.9278840  45.8137500  18.1234940   3.5081950
  46.8794090  18.6450160   2.5678400  36.4360500  16.0919750   5.2899450
  36.7777310  16.9361800   4.9953320  35.4976310  16.2403490   5.4064790
  37.2167120  25.9885770   7.2751680  37.8341120  26.6636850   6.9936130
  36.3560240  26.3973750   7.1839180  48.1344710  27.4525180   5.1906320
  47.4508230  28.1224290   5.1822990  48.6739000  27.6505830   4.4251180
  49.5868850  17.2804840   3.3188050  48.6393760  17.3143820   3.4503480
  49.9118840  18.0943790   3.7037410  45.6703450  29.2969310   3.9051500
  45.6830610  28.8931600   3.0373760  45.1178670  30.0716600   3.8012930
  45.0688890  24.1999150   5.2334110  45.4857680  23.9859260   4.3987570
  45.7928710  24.4571940   5.8042730  49.0150990  22.5986370   5.3250350
  48.1869620  22.6679460   4.8500480  49.6101470  23.1840680   4.8566180
  45.9793000  19.3855690   6.2705220  45.5664180  20.2109400   6.5245210
  45.2468950  18.8000730   6.0781580  38.5807490  25.8583150   3.2963100
  38.2835780  25.2528620   2.6170880  39.5307310  25.8960460   3.1852460
  36.8254410  18.9458800   4.9122930  37.3769000  19.0554140   4.1376180
  37.3397920  19.3196400   5.6278160  46.6693100  29.4315020   6.9586200
  46.1923660  30.2387210   6.7658810  45.9854890  28.7793350   7.1112410
  37.6725920  25.5964840   9.9470900  36.7754450  25.8204810  10.1944300
  37.6978790  25.7199780   8.9982300  36.4997140  22.4678160   8.5228270
  36.3604910  23.3400960   8.8915670  35.6178500  22.1250970   8.3776210
  38.2977490  28.4099860  10.7313420  38.2692920  28.8142810   9.8641850
  38.1342460  27.4810220  10.5685020  50.2492310  29.1926960  12.0277590
  50.7252030  29.6709850  12.7066670  50.8699470  29.1244450  11.3023090
  32.4515790  24.2375710   4.4399180  32.5296210  24.3724480   3.4954900
  33.0657470  23.5291600   4.6327300  49.6525560  26.3839810   9.1877600
  49.7788620  26.1451690   8.2694780  49.6946940  25.5524350   9.6599680
  43.5142300  30.0867810   7.7572410  44.0286970  29.9975820   8.5594840
  42.6711380  30.4327510   8.0500320  49.5049570  18.4372270  10.1527340
  48.8893840  18.9451940   9.6242800  49.1845990  17.5370600  10.0953280
  32.5075310  25.2789880   6.9793640  32.6706350  24.8095240   6.1613010
  32.9727760  24.7713440   7.6442480  37.2794080  14.4095640   2.0154210
  36.8362230  15.1905180   1.6838730  37.8379070  14.7325530   2.7225150
  41.5663890  17.2764160   7.6189530  41.1043260  17.4847180   8.4309470
  41.1642000  16.4623510   7.3160200  46.5668400  18.4973110   8.7486190
  45.7161990  18.1978860   9.0695260  46.4070190  18.7415120   7.8370010
  43.6618110  19.9974860  10.8484980  43.9871520  19.1638610  10.5087210
  44.4498440  20.5203380  10.9963310  39.3169980  14.9542970   3.8743810
  39.6142310  15.8605800   3.7935830  39.8655540  14.4661750   3.2603380
  39.5107510  20.4314790  10.4095730  39.4151110  19.4909520  10.2596130
  40.3539490  20.6529860  10.0143800  34.6418050  16.8428460   8.5629510
  34.2481440  17.6903670   8.7702290  33.9536450  16.2054830   8.7538150
  41.2163100  16.9263430  11.6326250  40.5261420  16.7335630  12.2672340
  41.9595400  17.2098070  12.1650550  31.9435100  14.7656920   2.5959590
  31.6548150  15.3359780   3.3084570  32.6880860  14.2861370   2.9590820
  43.4926070  20.7661870   4.4680170  42.7607190  21.2748680   4.8170270
  43.0950410  19.9491850   4.1668950  39.9303460  17.4416070   2.8732660
  39.9339520  17.0006020   2.0237200  40.8254580  17.7633400   2.9804480
  35.7805840  17.3242560   1.8326870  35.4405890  17.8017790   2.5893920
  35.0183160  16.8707680   1.4727970  43.9551980  16.2195550   3.8803110
  43.9724720  16.6704200   4.7244960  43.7067560  15.3201190   4.0936550
  47.3822730  13.6327730   9.7189490  47.7068500  12.9017390  10.2447470
  47.4179240  13.3141370   8.8170480  34.0814290  24.6541310   9.1389450
  33.6969080  24.0134980   9.7372410  34.3926480  25.3577430   9.7084180
  40.2311430  21.5017850   4.6198070  40.5981560  21.0276420   5.3659410
  40.0416490  22.3759420   4.9606410  38.0210800  20.5426490   6.9382280
  37.7167870  21.4218470   7.1632640  38.9757260  20.6026280   6.9739720
  47.3080570  23.7452840   3.3275520  48.0279690  24.2408130   2.9371630
  47.1062390  23.0670730   2.6829390  42.6899370  23.8161900   9.2144520
  42.6236680  22.8957570   8.9602110  42.0604510  23.9137340   9.9289160
  34.0774530  21.3829230   8.0853640  33.7189470  22.0483080   8.6726980
  33.7829090  20.5512780   8.4566260  37.2787650  21.8413470  10.9693190
  36.9787790  21.9870650  10.0721010  38.0498890  21.2818760  10.8766580
  42.6216100  26.6382470   8.9648320  42.6360640  25.7063430   8.7467230
  41.9141200  26.7242230   9.6038090  48.8327310  23.2789810   8.3116900
  48.1075500  23.8718590   8.1146290  49.3602770  23.2713350   7.5130270
  42.0550000  28.2800040   6.0588820  42.6992220  28.4859420   6.7362240
  42.4179440  27.5188440   5.6059670  43.3282080  26.2832390   4.7766270
  43.9704310  25.5825550   4.8898440  43.8531430  27.0630830   4.5963160
  45.1019700  27.0827290   7.9802330  45.4375940  27.6693980   8.6580250
  44.1820040  26.9520000   8.2100120  32.6523100  14.8722470   8.7625740
  31.9381620  15.0719390   9.3678350  33.0718140  14.0962040   9.1340540
  32.9395690  28.8602730   9.7492270  33.0486810  27.9197470   9.6087660
  32.2876250  29.1257480   9.1006000  40.9308280  27.1318620  11.1490390
  40.6105150  26.4127860  11.6936080  40.2566640  27.8073690  11.2226450
  44.1461880  17.3644780   6.5127190  44.5142700  16.5439990   6.8406760
  43.2860080  17.4246670   6.9282840  41.1063870  20.0184370   6.7365160
  41.6049120  20.4930190   7.4017010  41.2486820  19.0947890   6.9435190
  48.3130730  16.2352330   7.5793550  47.8104330  16.9757730   7.9187360
  49.1287390  16.6236330   7.2630340  48.6078320  28.6494360   2.7009170
  48.7325740  29.4725530   3.1732980  49.4743880  28.4385090   2.3533320
  36.0795850  30.7425570   2.3726300  36.8158330  30.1941030   2.6434870
  36.4636770  31.6081580   2.2332290  35.0854130  29.9271640  11.5611880
  35.8866860  30.2483690  11.9747280  34.5705950  29.5667220  12.2831790
  43.9218760  26.0351510  11.5087290  43.3156920  26.0583110  10.7683040
  43.6172870  25.3034550  12.0454540  45.3519130  29.7631800  10.1196700
  46.3040880  29.6789820  10.0696940  45.2047350  30.4273510  10.7930490
  32.8051940  22.4145100  10.5047930  33.3090960  21.8352380  11.0764160
  32.0659360  22.6985330  11.0424300  39.8589880  23.8216090  10.0383450
  39.0935550  24.3901090   9.9538120  40.0405840  23.5292300   9.1451680
  47.0013230  25.5521420  10.5958470  47.7422700  25.8897180  10.0925930
  46.2385910  25.7213480  10.0428240  34.8375020  20.5574690  11.3998000
  34.8780360  20.2588560  12.3083230  35.6920520  20.9582300  11.2405520
  36.7780830  19.1366790   9.3672490  36.2477290  18.6457740   8.7395830
  37.4468900  19.5650990   8.8330420  45.6758890  23.6036250   9.1313680
  46.0899910  23.7581330   9.9804100  44.7409890  23.7291470   9.2939460
  46.1481060  20.9432410  11.1352830  46.7301830  20.1884730  11.0473310
  46.3242830  21.4739850  10.3584310  37.2653130  16.1029160   9.4469780
  37.1710000  15.4849910   8.7220650  36.6850520  16.8295450   9.2199690
  40.0314570  14.6602400   6.4797170  39.5831870  14.6826660   5.6342720
  39.3979770  14.2621420   7.0767470  40.4374120  23.5556730   7.1009610
  40.8562230  24.3989460   6.9285850  39.5182750  23.6928770   6.8716390
  42.7738020  21.2872910   8.4847450  42.8934230  20.6914050   9.2242290
  43.6332020  21.3242600   8.0648750  45.1125920  21.8410100   7.0609960
  44.5861140  22.3652720   6.4575100  45.4557260  22.4737490   7.6919690
  38.2881540  29.8609740   8.2167340  37.7502630  30.5855800   7.8976040
  38.5415500  29.3840080   7.4264680  39.5406790  17.8294260   9.7423270
  40.1306480  17.5210110  10.4301090  38.7227030  17.3574010   9.8983170
  44.3600220  17.4460070   9.9756290  43.6715740  16.7841610   9.9106280
  45.0806240  16.9998340  10.4204750  41.1443750  31.0960950   8.4753990
  41.0702450  31.9996090   8.7826360  40.2422590  30.7772850   8.4476060
  32.5471040  28.4235540   1.7787610  32.8774050  27.5556600   1.5466250
  32.9762040  28.6294060   2.6092570  33.0361250  29.2906130   4.5169240
  32.5992240  29.4706930   5.3493390  33.6038930  30.0480750   4.3750960
  48.6723430  28.7923130   8.8046550  48.0725420  28.8515690   8.0610470
  48.8017330  27.8528110   8.9343400  47.3575070  25.5175110   6.9022710
  46.5434910  25.9472270   7.1648500  47.7649270  26.1293520   6.2891760
  33.9061610  22.1878930   5.4161460  34.2734650  22.1006330   6.2957480
  33.3372430  21.4245480   5.3168320  48.7065470  20.6563310   8.4291930
  48.4751560  20.4276060   7.5289880  48.9670020  21.5762860   8.3836820
  33.4577610  19.0988020   9.3219880  32.5633660  19.0654780   9.6613590
  33.9975160  19.2974810  10.0871130  47.1453540  15.8819740  11.2071630
  48.0223720  15.8903140  11.5905630  47.1574380  15.1450580  10.5963980
  48.5916810  19.7349280   2.0959650  49.1154290  19.2411930   1.4649820
  49.1776230  19.8699640   2.8407220  48.7706530  19.8189150   5.6179200
  47.8209240  19.7852690   5.7324190  48.9519540  20.7289260   5.3828970
  33.9617320  13.3736350   3.6703100  34.6093510  12.8233730   3.2298260
  34.3819160  13.6279500   4.4918910  47.8569660  13.5677710   7.0272740
  48.4941880  14.1811850   7.3931930  48.0044550  13.6038370   6.0821970
  33.7149320  13.5292020   6.4128420  33.3664140  13.9855840   7.1786600
  33.3837020  12.6349150   6.4950850  35.3213690  26.7011620  10.5781610
  35.2783320  26.3304530  11.4596070  35.4524700  27.6389190  10.7183430
  39.0219720  28.2571210   6.1791330  38.7811080  28.5245770   5.2921850
  39.9622360  28.4276940   6.2342190  41.2274140  14.7203900   9.9347840
  41.1663030  15.3125730  10.6843250  42.1674520  14.6129860   9.7898100
  43.8648700  14.3773960   9.5740130  44.4789110  14.6953250   8.9121210
  44.4098260  13.8922550  10.1935990  50.2823880  30.2765590   6.9801970
  49.7882160  30.6734460   6.2629100  49.6737170  29.6514800   7.3739250
  34.3869960  13.0568220   9.6879190  34.9352950  12.8756270   8.9245300
  34.4525270  12.2662330  10.2235500  35.1601720  29.6473870   7.6979390
  34.5662040  29.5158570   8.4369430  35.1525560  28.8112010   7.2321490
  44.6056740  12.9406100   5.9009420  43.7316580  13.2741210   5.6982350
  44.4967490  12.4679280   6.7261290  45.5128720  15.1476970   7.2851140
  45.1842080  14.3328730   6.9052870  46.4611020  15.1046780   7.1616830
  47.9663330  30.9189010   4.2588710  47.5066300  31.6704820   3.8846730
  47.3375790  30.1995480   4.2003510  34.7913950  27.0132250   6.6487430
  34.0648010  26.3937540   6.5813380  34.8523100  27.4072860   5.7785510
  38.3959050  29.2277250   3.4336840  38.9124070  28.6164610   2.9085100
  39.0456430  29.7306030   3.9247850  41.1354550  30.1185740   4.2605820
  41.4232360  29.8640040   3.3838830  41.6477770  29.5663100   4.8511390
  42.3531560  13.8575940   4.8402330  41.5703350  14.3321440   5.1199090
  42.0594490  12.9530770   4.7315510  46.9052630  14.5599040   2.8851420
  47.3460720  14.5044140   2.0373020  46.6360220  15.4757050   2.9561600
  41.2026910  31.0401840  11.6274020  42.1294220  30.8046110  11.6709980
  41.1877340  31.8673840  11.1460050  38.3890520  13.7046590  11.3915900
  38.1074790  14.2080190  10.6276720  38.7710220  12.9068340  11.0258030
  44.9905980  13.1200170  11.9696370  44.8771430  13.4394780  12.8647890
  45.8075720  13.5212680  11.6733650  47.7704470  30.2671700  11.4515060
  48.5629790  29.7720930  11.2441020  48.0637620  30.9461840  12.0590670
  43.8964130   2.3649150  57.4305070  43.8158180   1.4503760  57.1596780
  43.4828550   2.8616220  56.7244780  42.0282170   4.1428170  59.3114340
  41.2524270   3.6628610  59.6012910  42.6795100   3.4633820  59.1370500
  46.0489600   8.5488360  58.0913470  45.5871130   7.7775600  58.4200640
  46.8615150   8.5754430  58.5965920  32.4172960   2.0155520  59.8572190
  32.9889070   1.2477720  59.8575830  32.4174500   2.3144280  58.9478800
  42.2752910  10.8346370  57.7117460  41.6564350  11.2903870  57.1411900
  43.1304690  10.9897830  57.3107160  41.4691160   6.8185360  59.3184500
  41.3999440   5.8775300  59.1573630  42.2311020   6.9086770  59.8907070
  43.1416260   5.7185610  55.1049370  42.5233530   6.1835060  54.5412090
  43.6539510   6.4113090  55.5218880  32.5099460   6.4042140  52.4789000
  32.1327440   6.8929240  51.7473900  32.7672530   7.0767420  53.1095530
  45.6703450  10.5225820  60.2281970  45.6830610  10.1188110  59.3604230
  45.1178670  11.2973110  60.1243400  46.9648870   7.2442040  55.3172140
  46.8545200   6.3016370  55.4421560  46.9617120   7.6057680  56.2034900
  42.5069150   2.8707360  54.6734630  41.5798430   2.8044740  54.9023100
  42.6593970   3.8087490  54.5589870  46.5366440   4.4327660  55.1769880
  45.9178860   4.0947210  54.5296180  46.5190890   3.7887420  55.8849070
  38.1125790   3.3972100  57.4554360  37.7082790   2.6849350  56.9600260
  38.1988910   3.0525340  58.3442400  38.5807490   7.0839660  59.6193570
  38.2835780   6.4785130  58.9401350  39.5307310   7.1216970  59.5082930
  44.7131140   3.6714470  52.1842630  45.1524420   2.8336900  52.0380450
  45.4259560   4.3043870  52.2706770  42.8226520   8.6110540  56.1523870
  43.2622430   9.3534870  55.7379260  42.7613410   8.8537110  57.0762830
  34.8130420   2.2917080  54.9561010  34.6928020   3.0179170  54.3442280
  34.5031310   1.5219990  54.4788920  33.6963420   7.1632410  57.1735830
  33.2891500   7.3047000  56.3189430  34.5876430   6.8792570  56.9707040
  45.4896700  11.5979660  53.5086880  45.3297840  11.3082600  54.4068710
  45.3243410  10.8219790  52.9732110  37.9685080  11.3778190  55.2858500
  37.7927560  10.4613730  55.0726300  37.1140820  11.7365480  55.5256300
  45.1922830   9.1067220  52.0684880  44.4987990   9.1044510  51.4087160
  45.9345690   8.6826540  51.6379050  44.7572760  10.7329930  56.1433370
  45.2129710   9.9519310  56.4571990  45.0965280  11.4436750  56.6874550
  39.0045110   1.9785800  51.5853190  38.4362010   1.5304050  50.9589100
  39.7134110   2.3378580  51.0518340  36.5492590   5.9743990  53.8579600
  35.7754850   5.4341610  53.6978320  37.2787220   5.4550600  53.5197360
  47.3080570   4.9709350  59.6505990  48.0279690   5.4664640  59.2602100
  47.1062390   4.2927240  59.0059860  36.5929990   5.6424370  57.4958410
  37.1108660   4.8392630  57.4415300  36.1414010   5.5803510  58.3375240
  41.4799490   6.9090650  52.7685710  41.8215190   7.6532880  52.2729030
  40.6512200   7.2221770  53.1310540  47.7553170   2.0478800  51.5577400
  47.6716890   2.4793020  50.7073840  48.4747360   2.5077150  51.9904220
  48.7840420   8.9021060  54.2859530  48.1416580   8.2476680  54.5603250
  48.3971080   9.3076150  53.5100200  44.3626900   6.2306490  58.1331220
  44.7150720   5.6334620  57.4732590  43.4789230   5.9050720  58.3039470
  40.4490180   6.9904180  55.5401630  41.1361310   7.5373390  55.9209220
  39.6622600   7.5344910  55.5751240  32.5882580   2.6077000  51.0318710
  33.4577430   2.8901800  51.3154630  32.0972900   3.4212870  50.9167520
  39.7517390   3.9950210  55.1526990  40.2080170   4.8055460  55.3787180
  39.4005600   3.6773350  55.9845480  47.1737800   7.7937520  50.8235880
  46.9475380   7.0767960  51.4160520  46.7834000   7.5449960  49.9857630
  32.9553830  11.8204380  51.5980340  33.3151470  12.4193720  50.9437610
  32.8146170  12.3664270  52.3715370  46.7554050   5.7109460  52.4850040
  46.4675750   6.1722150  53.2727920  47.5506220   5.2507230  52.7534260
  38.9722450   9.2035580  52.4154010  38.9632550   9.9365270  51.7998520
  38.0520810   8.9567160  52.5080970  41.9582050   9.2663820  51.0779200
  42.0594030   9.0627810  50.1481180  41.0583790   9.0122100  51.2826980
  40.6000160  11.7850140  55.7726870  40.8541660  11.7471530  54.8506240
  39.6512640  11.6583470  55.7655120  46.6052740   2.7042020  57.3485380
  45.6642880   2.7192250  57.5233070  46.9196810   1.9177980  57.7945680
  36.5834380   4.3861620  50.9089340  37.3497650   4.2742980  51.4714770
  36.6609070   3.6899590  50.2566110  48.6078320   9.8750870  59.0239640
  48.7325740  10.6982040  59.4963450  49.4743880   9.6641600  58.6763790
  36.0795850  11.9682080  58.6956770  36.8158330  11.4197540  58.9665340
  36.4636770  12.8338090  58.5562760  32.9641330   8.0355650  54.5698280
  32.0381110   8.2776790  54.5603690  33.4297760   8.8629910  54.4483030
  39.1898160  11.1412390  50.5182340  39.9826770  11.4301220  50.0664130
  38.6702510  10.7104560  49.8394820  48.2428330  10.3682520  51.9419080
  47.9569840   9.9547660  51.1273260  48.0447880  11.2970230  51.8219600
  39.7075560   6.3615800  50.3824690  39.6026200   5.7468150  51.1086070
  39.5399780   5.8381690  49.5987700  42.9478290   5.4235830  50.9866680
  42.3988390   5.8705130  51.6309420  43.5697550   4.9185080  51.5104350
  38.6153410   4.3826750  52.8831980  39.0369830   4.2166620  53.7263370
  38.7404250   3.5726980  52.3887120  41.1281050   3.4064360  50.1309080
  41.6486710   2.6913380  49.7650230  41.7749450   4.0450230  50.4309590
  41.6929080  11.4875970  52.4210820  42.5879870  11.8260940  52.4429580
  41.7246710  10.7655380  51.7935100  35.3325240   6.8603020  50.6497820
  35.7700110   7.4032690  51.3055400  35.8172970   6.0349970  50.6594160
  32.5471040   9.6492050  58.1018080  32.8774050   8.7813110  57.8696720
  32.9762040   9.8550570  58.9323040  37.1432960   7.9801060  55.7620050
  36.8428500   7.8566030  56.6623960  37.0370450   7.1209650  55.3535780
  49.9124880   7.7597460  50.4646730  49.0817840   7.8274110  50.9353960
  50.0896710   8.6501580  50.1613590  49.3681340   4.5044940  52.9680930
  50.1300250   5.0741590  53.0740620  49.3835710   3.9372140  53.7389240
  32.8685680   3.0282870  57.1988590  32.2134520   2.7594510  56.5548290
  33.7063630   2.9187350  56.7490570  50.3741310   5.3595040  57.8122860
  50.7450140   4.5762360  57.4058830  51.0143240   6.0484140  57.6340160
  49.4200510   4.7979310  50.1253450  49.6949350   5.7058190  49.9972670
  49.2311250   4.7341840  51.0615440  49.3165850   2.7348300  55.1182880
  48.9409450   1.9676230  54.6864170  48.5868970   3.1171000  55.6057810
  47.4151120  11.4950220  56.7521450  48.0110190  11.1734790  56.0755870
  47.6729270  11.0222040  57.5434720  38.3959050  10.4533760  59.7567310
  38.9124070   9.8421120  59.2315570  39.0456430  10.9562540  60.2478320
  33.0743950  11.5563150  56.1814660  32.9065990  10.9233830  56.8796550
  32.2078460  11.7622550  55.8308850  34.6806650  10.2496380  53.6264800
  34.1554270  10.6304410  52.9226760  34.6051230  10.8747150  54.3474510
  49.4371970  11.8083920  54.9478740  49.6124160  11.1221660  54.3039660
  48.7393540  12.3330970  54.5555410  37.2799620  12.1978760  52.5014050
  38.0118440  11.9138040  51.9537940  37.5393290  11.9592040  53.3913430
  36.4414410   8.3143490  52.5060380  35.8123290   8.7828590  53.0546210
  36.5562240   7.4692710  52.9406570  43.8964130   2.3649150  38.6561580
  43.8158180   1.4503760  38.3853290  43.4828550   2.8616220  37.9501290
  42.0282170   4.1428170  40.5370850  41.2524270   3.6628610  40.8269420
  42.6795100   3.4633820  40.3627010  36.0448000   4.4547980  41.4146610
  35.2132880   4.1996690  41.8143120  36.6528980   4.5258750  42.1504530
  46.0489600   8.5488360  39.3169980  45.5871130   7.7775600  39.6457150
  46.8615150   8.5754430  39.8222430  36.0249260   8.4888070  41.6104630
  36.3277300   7.5985810  41.4314850  36.7692850   9.0458290  41.3826880
  32.4172960   2.0155520  41.0828700  32.9889070   1.2477720  41.0832340
  32.4174500   2.3144280  40.1735310  42.2752910  10.8346370  38.9373970
  41.6564350  11.2903870  38.3668410  43.1304690  10.9897830  38.5363670
  41.4691160   6.8185360  40.5441010  41.3999440   5.8775300  40.3830140
  42.2311020   6.9086770  41.1163580  43.1416260   5.7185610  36.3305880
  42.5233530   6.1835060  35.7668600  43.6539510   6.4113090  36.7475390
  38.0048020   5.2461480  43.0089480  37.6717400   5.8730400  43.6510550
  38.1814700   5.7723360  42.2291150  37.2167120   7.2142280  44.8238660
  37.8341120   7.8893360  44.5423110  36.3560240   7.6230260  44.7326160
  32.5099460   6.4042140  33.7045510  32.1327440   6.8929240  32.9730410
  32.7672530   7.0767420  34.3352040  48.1344710   8.6781690  42.7393300
  47.4508230   9.3480800  42.7309970  48.6739000   8.8762340  41.9738160
  45.6703450  10.5225820  41.4538480  45.6830610  10.1188110  40.5860740
  45.1178670  11.2973110  41.3499910  46.9648870   7.2442040  36.5428650
  46.8545200   6.3016370  36.6678070  46.9617120   7.6057680  37.4291410
  45.0688890   5.4255660  42.7821090  45.4857680   5.2115770  41.9474550
  45.7928710   5.6828450  43.3529710  42.5069150   2.8707360  35.8991140
  41.5798430   2.8044740  36.1279610  42.6593970   3.8087490  35.7846380
  49.0150990   3.8242880  42.8737330  48.1869620   3.8935970  42.3987460
  49.6101470   4.4097190  42.4053160  46.5366440   4.4327660  36.4026390
  45.9178860   4.0947210  35.7552690  46.5190890   3.7887420  37.1105580
  38.1125790   3.3972100  38.6810870  37.7082790   2.6849350  38.1856770
  38.1988910   3.0525340  39.5698910  38.5807490   7.0839660  40.8450080
  38.2835780   6.4785130  40.1657860  39.5307310   7.1216970  40.7339440
  46.6693100  10.6571530  44.5073180  46.1923660  11.4643720  44.3145790
  45.9854890  10.0049860  44.6599390  37.6725920   6.8221350  47.4957880
  36.7754450   7.0461320  47.7431280  37.6978790   6.9456290  46.5469280
  44.7131140   3.6714470  33.4099140  45.1524420   2.8336900  33.2636960
  45.4259560   4.3043870  33.4963280  36.4997140   3.6934670  46.0715250
  36.3604910   4.5657470  46.4402650  35.6178500   3.3507480  45.9263190
  42.8226520   8.6110540  37.3780380  43.2622430   9.3534870  36.9635770
  42.7613410   8.8537110  38.3019340  38.2977490   9.6356370  48.2800400
  38.2692920  10.0399320  47.4128830  38.1342460   8.7066730  48.1172000
  34.8130420   2.2917080  36.1817520  34.6928020   3.0179170  35.5698790
  34.5031310   1.5219990  35.7045430  50.2492310  10.4183470  49.5764570
  50.7252030  10.8966360  50.2553650  50.8699470  10.3500960  48.8510070
  32.4515790   5.4632220  41.9886160  32.5296210   5.5980990  41.0441880
  33.0657470   4.7548110  42.1814280  33.6963420   7.1632410  38.3992340
  33.2891500   7.3047000  37.5445940  34.5876430   6.8792570  38.1963550
  49.6525560   7.6096320  46.7364580  49.7788620   7.3708200  45.8181760
  49.6946940   6.7780860  47.2086660  43.5142300  11.3124320  45.3059390
  44.0286970  11.2232330  46.1081820  42.6711380  11.6584020  45.5987300
  45.4896700  11.5979660  34.7343390  45.3297840  11.3082600  35.6325220
  45.3243410  10.8219790  34.1988620  37.9685080  11.3778190  36.5115010
  37.7927560  10.4613730  36.2982810  37.1140820  11.7365480  36.7512810
  45.1922830   9.1067220  33.2941390  44.4987990   9.1044510  32.6343670
  45.9345690   8.6826540  32.8635560  44.7572760  10.7329930  37.3689880
  45.2129710   9.9519310  37.6828500  45.0965280  11.4436750  37.9131060
  32.5075310   6.5046390  44.5280620  32.6706350   6.0351750  43.7099990
  32.9727760   5.9969950  45.1929460  39.0045110   1.9785800  32.8109700
  38.4362010   1.5304050  32.1845610  39.7134110   2.3378580  32.2774850
  34.0814290   5.8797820  46.6876430  33.6969080   5.2391490  47.2859390
  34.3926480   6.5833940  47.2571160  40.2311430   2.7274360  42.1685050
  40.5981560   2.2532930  42.9146390  40.0416490   3.6015930  42.5093390
  38.0210800   1.7683000  44.4869260  37.7167870   2.6474980  44.7119620
  38.9757260   1.8282790  44.5226700  36.5492590   5.9743990  35.0836110
  35.7754850   5.4341610  34.9234830  37.2787220   5.4550600  34.7453870
  47.3080570   4.9709350  40.8762500  48.0279690   5.4664640  40.4858610
  47.1062390   4.2927240  40.2316370  42.6899370   5.0418410  46.7631500
  42.6236680   4.1214080  46.5089090  42.0604510   5.1393850  47.4776140
  36.5929990   5.6424370  38.7214920  37.1108660   4.8392630  38.6671810
  36.1414010   5.5803510  39.5631750  41.4799490   6.9090650  33.9942220
  41.8215190   7.6532880  33.4985540  40.6512200   7.2221770  34.3567050
  34.0774530   2.6085740  45.6340620  33.7189470   3.2739590  46.2213960
  33.7829090   1.7769290  46.0053240  37.2787650   3.0669980  48.5180170
  36.9787790   3.2127160  47.6207990  38.0498890   2.5075270  48.4253560
  42.6216100   7.8638980  46.5135300  42.6360640   6.9319940  46.2954210
  41.9141200   7.9498740  47.1525070  47.7553170   2.0478800  32.7833910
  47.6716890   2.4793020  31.9330350  48.4747360   2.5077150  33.2160730
  48.8327310   4.5046320  45.8603880  48.1075500   5.0975100  45.6633270
  49.3602770   4.4969860  45.0617250  48.7840420   8.9021060  35.5116040
  48.1416580   8.2476680  35.7859760  48.3971080   9.3076150  34.7356710
  44.3626900   6.2306490  39.3587730  44.7150720   5.6334620  38.6989100
  43.4789230   5.9050720  39.5295980  40.4490180   6.9904180  36.7658140
  41.1361310   7.5373390  37.1465730  39.6622600   7.5344910  36.8007750
  32.5882580   2.6077000  32.2575220  33.4577430   2.8901800  32.5411140
  32.0972900   3.4212870  32.1424030  39.7517390   3.9950210  36.3783500
  40.2080170   4.8055460  36.6043690  39.4005600   3.6773350  37.2101990
  42.0550000   9.5056550  43.6075800  42.6992220   9.7115930  44.2849220
  42.4179440   8.7444950  43.1546650  43.3282080   7.5088900  42.3253250
  43.9704310   6.8082060  42.4385420  43.8531430   8.2887340  42.1450140
  47.1737800   7.7937520  32.0492390  46.9475380   7.0767960  32.6417030
  46.7834000   7.5449960  31.2114140  45.1019700   8.3083800  45.5289310
  45.4375940   8.8950490  46.2067230  44.1820040   8.1776510  45.7587100
  32.9553830  11.8204380  32.8236850  33.3151470  12.4193720  32.1694120
  32.8146170  12.3664270  33.5971880  46.7554050   5.7109460  33.7106550
  46.4675750   6.1722150  34.4984430  47.5506220   5.2507230  33.9790770
  32.9395690  10.0859240  47.2979250  33.0486810   9.1453980  47.1574640
  32.2876250  10.3513990  46.6492980  40.9308280   8.3575130  48.6977370
  40.6105150   7.6384370  49.2423060  40.2566640   9.0330200  48.7713430
  38.9722450   9.2035580  33.6410520  38.9632550   9.9365270  33.0255030
  38.0520810   8.9567160  33.7337480  34.5729090   4.4250470  34.3857280
  33.9657040   5.1649370  34.3952580  35.0478440   4.5149830  33.5595480
  41.9582050   9.2663820  32.3035710  42.0594030   9.0627810  31.3737690
  41.0583790   9.0122100  32.5083490  40.6000160  11.7850140  36.9983380
  40.8541660  11.7471530  36.0762750  39.6512640  11.6583470  36.9911630
  46.6052740   2.7042020  38.5741890  45.6642880   2.7192250  38.7489580
  46.9196810   1.9177980  39.0202190  36.5834380   4.3861620  32.1345850
  37.3497650   4.2742980  32.6971280  36.6609070   3.6899590  31.4822620
  48.6078320   9.8750870  40.2496150  48.7325740  10.6982040  40.7219960
  49.4743880   9.6641600  39.9020300  36.0795850  11.9682080  39.9213280
  36.8158330  11.4197540  40.1921850  36.4636770  12.8338090  39.7819270
  32.9641330   8.0355650  35.7954790  32.0381110   8.2776790  35.7860200
  33.4297760   8.8629910  35.6739540  35.0854130  11.1528150  49.1098860
  35.8866860  11.4740200  49.5234260  34.5705950  10.7923730  49.8318770
  39.1898160  11.1412390  31.7438850  39.9826770  11.4301220  31.2920640
  38.6702510  10.7104560  31.0651330  43.9218760   7.2608020  49.0574270
  43.3156920   7.2839620  48.3170020  43.6172870   6.5291060  49.5941520
  45.3519130  10.9888310  47.6683680  46.3040880  10.9046330  47.6183920
  45.2047350  11.6530020  48.3417470  48.2428330  10.3682520  33.1675590
  47.9569840   9.9547660  32.3529770  48.0447880  11.2970230  33.0476110
  32.8051940   3.6401610  48.0534910  33.3090960   3.0608890  48.6251140
  32.0659360   3.9241840  48.5911280  39.7075560   6.3615800  31.6081200
  39.6026200   5.7468150  32.3342580  39.5399780   5.8381690  30.8244210
  39.8589880   5.0472600  47.5870430  39.0935550   5.6157600  47.5025100
  40.0405840   4.7548810  46.6938660  42.9478290   5.4235830  32.2123190
  42.3988390   5.8705130  32.8565930  43.5697550   4.9185080  32.7360860
  47.0013230   6.7777930  48.1445450  47.7422700   7.1153690  47.6412910
  46.2385910   6.9469990  47.5915220  34.8375020   1.7831200  48.9484980
  34.8780360   1.4845070  49.8570210  35.6920520   2.1838810  48.7892500
  38.6153410   4.3826750  34.1088490  39.0369830   4.2166620  34.9519880
  38.7404250   3.5726980  33.6143630  41.1281050   3.4064360  31.3565590
  41.6486710   2.6913380  30.9906740  41.7749450   4.0450230  31.6566100
  45.6758890   4.8292760  46.6800660  46.0899910   4.9837840  47.5291080
  44.7409890   4.9547980  46.8426440  46.1481060   2.1688920  48.6839810
  46.7301830   1.4141240  48.5960290  46.3242830   2.6996360  47.9071290
  40.4374120   4.7813240  44.6496590  40.8562230   5.6245970  44.4772830
  39.5182750   4.9185280  44.4203370  42.7738020   2.5129420  46.0334430
  42.8934230   1.9170560  46.7729270  43.6332020   2.5499110  45.6135730
  45.1125920   3.0666610  44.6096940  44.5861140   3.5909230  44.0062080
  45.4557260   3.6994000  45.2406670  38.2881540  11.0866250  45.7654320
  37.7502630  11.8112310  45.4463020  38.5415500  10.6096590  44.9751660
  41.6929080  11.4875970  33.6467330  42.5879870  11.8260940  33.6686090
  41.7246710  10.7655380  33.0191610  35.3325240   6.8603020  31.8754330
  35.7700110   7.4032690  32.5311910  35.8172970   6.0349970  31.8850670
  32.5471040   9.6492050  39.3274590  32.8774050   8.7813110  39.0953230
  32.9762040   9.8550570  40.1579550  37.1432960   7.9801060  36.9876560
  36.8428500   7.8566030  37.8880470  37.0370450   7.1209650  36.5792290
  33.0361250  10.5162640  42.0656220  32.5992240  10.6963440  42.8980370
  33.6038930  11.2737260  41.9237940  48.6723430  10.0179640  46.3533530
  48.0725420  10.0772200  45.6097450  48.8017330   9.0784620  46.4830380
  49.9124880   7.7597460  31.6903240  49.0817840   7.8274110  32.1610470
  50.0896710   8.6501580  31.3870100  49.3681340   4.5044940  34.1937440
  50.1300250   5.0741590  34.2997130  49.3835710   3.9372140  34.9645750
  32.8685680   3.0282870  38.4245100  32.2134520   2.7594510  37.7804800
  33.7063630   2.9187350  37.9747080  50.3741310   5.3595040  39.0379370
  50.7450140   4.5762360  38.6315340  51.0143240   6.0484140  38.8596670
  47.3575070   6.7431620  44.4509690  46.5434910   7.1728780  44.7135480
  47.7649270   7.3550030  43.8378740  49.4200510   4.7979310  31.3509960
  49.6949350   5.7058190  31.2229180  49.2311250   4.7341840  32.2871950
  49.3165850   2.7348300  36.3439390  48.9409450   1.9676230  35.9120680
  48.5868970   3.1171000  36.8314320  33.9061610   3.4135440  42.9648440
  34.2734650   3.3262840  43.8444460  33.3372430   2.6501990  42.8655300
  48.7065470   1.8819820  45.9778910  48.4751560   1.6532570  45.0776860
  48.9670020   2.8019370  45.9323800  47.4151120  11.4950220  37.9777960
  48.0110190  11.1734790  37.3012380  47.6729270  11.0222040  38.7691230
  35.3213690   7.9268130  48.1268590  35.2783320   7.5561040  49.0083050
  35.4524700   8.8645700  48.2670410  39.0219720   9.4827720  43.7278310
  38.7811080   9.7502280  42.8408830  39.9622360   9.6533450  43.7829170
  50.2823880  11.5022100  44.5288950  49.7882160  11.8990970  43.8116080
  49.6737170  10.8771310  44.9226230  35.1601720  10.8730380  45.2466370
  34.5662040  10.7415080  45.9856410  35.1525560  10.0368520  44.7808470
  47.9663330  12.1445520  41.8075690  47.5066300  12.8961330  41.4333710
  47.3375790  11.4251990  41.7490490  34.7913950   8.2388760  44.1974410
  34.0648010   7.6194050  44.1300360  34.8523100   8.6329370  43.3272490
  38.3959050  10.4533760  40.9823820  38.9124070   9.8421120  40.4572080
  39.0456430  10.9562540  41.4734830  41.1354550  11.3442250  41.8092800
  41.4232360  11.0896550  40.9325810  41.6477770  10.7919610  42.3998370
  33.0743950  11.5563150  37.4071170  32.9065990  10.9233830  38.1053060
  32.2078460  11.7622550  37.0565360  34.6806650  10.2496380  34.8521310
  34.1554270  10.6304410  34.1483270  34.6051230  10.8747150  35.5731020
  41.2026910  12.2658350  49.1761000  42.1294220  12.0302620  49.2196960
  41.1877340  13.0930350  48.6947030  49.4371970  11.8083920  36.1735250
  49.6124160  11.1221660  35.5296170  48.7393540  12.3330970  35.7811920
  37.2799620  12.1978760  33.7270560  38.0118440  11.9138040  33.1794450
  37.5393290  11.9592040  34.6169940  36.4414410   8.3143490  33.7316890
  35.8123290   8.7828590  34.2802720  36.5562240   7.4692710  34.1663080
  47.7704470  11.4928210  49.0002040  48.5629790  10.9977440  48.7928000
  48.0637620  12.1718350  49.6077650  43.8964130   2.3649150  19.8818090
  43.8158180   1.4503760  19.6109800  43.4828550   2.8616220  19.1757800
  42.0282170   4.1428170  21.7627360  41.2524270   3.6628610  22.0525930
  42.6795100   3.4633820  21.5883520  36.0448000   4.4547980  22.6403120
  35.2132880   4.1996690  23.0399630  36.6528980   4.5258750  23.3761040
  46.0489600   8.5488360  20.5426490  45.5871130   7.7775600  20.8713660
  46.8615150   8.5754430  21.0478940  36.0249260   8.4888070  22.8361140
  36.3277300   7.5985810  22.6571360  36.7692850   9.0458290  22.6083390
  32.4172960   2.0155520  22.3085210  32.9889070   1.2477720  22.3088850
  32.4174500   2.3144280  21.3991820  42.2752910  10.8346370  20.1630480
  41.6564350  11.2903870  19.5924920  43.1304690  10.9897830  19.7620180
  41.4691160   6.8185360  21.7697520  41.3999440   5.8775300  21.6086650
  42.2311020   6.9086770  22.3420090  43.1416260   5.7185610  17.5562390
  42.5233530   6.1835060  16.9925110  43.6539510   6.4113090  17.9731900
  38.0048020   5.2461480  24.2345990  37.6717400   5.8730400  24.8767060
  38.1814700   5.7723360  23.4547660  37.2167120   7.2142280  26.0495170
  37.8341120   7.8893360  25.7679620  36.3560240   7.6230260  25.9582670
  32.5099460   6.4042140  14.9302020  32.1327440   6.8929240  14.1986920
  32.7672530   7.0767420  15.5608550  48.1344710   8.6781690  23.9649810
  47.4508230   9.3480800  23.9566480  48.6739000   8.8762340  23.1994670
  45.6703450  10.5225820  22.6794990  45.6830610  10.1188110  21.8117250
  45.1178670  11.2973110  22.5756420  46.9648870   7.2442040  17.7685160
  46.8545200   6.3016370  17.8934580  46.9617120   7.6057680  18.6547920
  45.0688890   5.4255660  24.0077600  45.4857680   5.2115770  23.1731060
  45.7928710   5.6828450  24.5786220  42.5069150   2.8707360  17.1247650
  41.5798430   2.8044740  17.3536120  42.6593970   3.8087490  17.0102890
  49.0150990   3.8242880  24.0993840  48.1869620   3.8935970  23.6243970
  49.6101470   4.4097190  23.6309670  46.5366440   4.4327660  17.6282900
  45.9178860   4.0947210  16.9809200  46.5190890   3.7887420  18.3362090
  38.1125790   3.3972100  19.9067380  37.7082790   2.6849350  19.4113280
  38.1988910   3.0525340  20.7955420  38.5807490   7.0839660  22.0706590
  38.2835780   6.4785130  21.3914370  39.5307310   7.1216970  21.9595950
  46.6693100  10.6571530  25.7329690  46.1923660  11.4643720  25.5402300
  45.9854890  10.0049860  25.8855900  37.6725920   6.8221350  28.7214390
  36.7754450   7.0461320  28.9687790  37.6978790   6.9456290  27.7725790
  44.7131140   3.6714470  14.6355650  45.1524420   2.8336900  14.4893470
  45.4259560   4.3043870  14.7219790  36.4997140   3.6934670  27.2971760
  36.3604910   4.5657470  27.6659160  35.6178500   3.3507480  27.1519700
  42.8226520   8.6110540  18.6036890  43.2622430   9.3534870  18.1892280
  42.7613410   8.8537110  19.5275850  38.2977490   9.6356370  29.5056910
  38.2692920  10.0399320  28.6385340  38.1342460   8.7066730  29.3428510
  34.8130420   2.2917080  17.4074030  34.6928020   3.0179170  16.7955300
  34.5031310   1.5219990  16.9301940  50.2492310  10.4183470  30.8021080
  50.7252030  10.8966360  31.4810160  50.8699470  10.3500960  30.0766580
  32.4515790   5.4632220  23.2142670  32.5296210   5.5980990  22.2698390
  33.0657470   4.7548110  23.4070790  33.6963420   7.1632410  19.6248850
  33.2891500   7.3047000  18.7702450  34.5876430   6.8792570  19.4220060
  49.6525560   7.6096320  27.9621090  49.7788620   7.3708200  27.0438270
  49.6946940   6.7780860  28.4343170  43.5142300  11.3124320  26.5315900
  44.0286970  11.2232330  27.3338330  42.6711380  11.6584020  26.8243810
  45.4896700  11.5979660  15.9599900  45.3297840  11.3082600  16.8581730
  45.3243410  10.8219790  15.4245130  37.9685080  11.3778190  17.7371520
  37.7927560  10.4613730  17.5239320  37.1140820  11.7365480  17.9769320
  45.1922830   9.1067220  14.5197900  44.4987990   9.1044510  13.8600180
  45.9345690   8.6826540  14.0892070  44.7572760  10.7329930  18.5946390
  45.2129710   9.9519310  18.9085010  45.0965280  11.4436750  19.1387570
  32.5075310   6.5046390  25.7537130  32.6706350   6.0351750  24.9356500
  32.9727760   5.9969950  26.4185970  39.0045110   1.9785800  14.0366210
  38.4362010   1.5304050  13.4102120  39.7134110   2.3378580  13.5031360
  34.0814290   5.8797820  27.9132940  33.6969080   5.2391490  28.5115900
  34.3926480   6.5833940  28.4827670  40.2311430   2.7274360  23.3941560
  40.5981560   2.2532930  24.1402900  40.0416490   3.6015930  23.7349900
  38.0210800   1.7683000  25.7125770  37.7167870   2.6474980  25.9376130
  38.9757260   1.8282790  25.7483210  36.5492590   5.9743990  16.3092620
  35.7754850   5.4341610  16.1491340  37.2787220   5.4550600  15.9710380
  47.3080570   4.9709350  22.1019010  48.0279690   5.4664640  21.7115120
  47.1062390   4.2927240  21.4572880  42.6899370   5.0418410  27.9888010
  42.6236680   4.1214080  27.7345600  42.0604510   5.1393850  28.7032650
  36.5929990   5.6424370  19.9471430  37.1108660   4.8392630  19.8928320
  36.1414010   5.5803510  20.7888260  41.4799490   6.9090650  15.2198730
  41.8215190   7.6532880  14.7242050  40.6512200   7.2221770  15.5823560
  34.0774530   2.6085740  26.8597130  33.7189470   3.2739590  27.4470470
  33.7829090   1.7769290  27.2309750  37.2787650   3.0669980  29.7436680
  36.9787790   3.2127160  28.8464500  38.0498890   2.5075270  29.6510070
  42.6216100   7.8638980  27.7391810  42.6360640   6.9319940  27.5210720
  41.9141200   7.9498740  28.3781580  47.7553170   2.0478800  14.0090420
  47.6716890   2.4793020  13.1586860  48.4747360   2.5077150  14.4417240
  48.8327310   4.5046320  27.0860390  48.1075500   5.0975100  26.8889780
  49.3602770   4.4969860  26.2873760  48.7840420   8.9021060  16.7372550
  48.1416580   8.2476680  17.0116270  48.3971080   9.3076150  15.9613220
  44.3626900   6.2306490  20.5844240  44.7150720   5.6334620  19.9245610
  43.4789230   5.9050720  20.7552490  40.4490180   6.9904180  17.9914650
  41.1361310   7.5373390  18.3722240  39.6622600   7.5344910  18.0264260
  32.5882580   2.6077000  13.4831730  33.4577430   2.8901800  13.7667650
  32.0972900   3.4212870  13.3680540  39.7517390   3.9950210  17.6040010
  40.2080170   4.8055460  17.8300200  39.4005600   3.6773350  18.4358500
  42.0550000   9.5056550  24.8332310  42.6992220   9.7115930  25.5105730
  42.4179440   8.7444950  24.3803160  43.3282080   7.5088900  23.5509760
  43.9704310   6.8082060  23.6641930  43.8531430   8.2887340  23.3706650
  47.1737800   7.7937520  13.2748900  46.9475380   7.0767960  13.8673540
  46.7834000   7.5449960  12.4370650  45.1019700   8.3083800  26.7545820
  45.4375940   8.8950490  27.4323740  44.1820040   8.1776510  26.9843610
  32.9553830  11.8204380  14.0493360  33.3151470  12.4193720  13.3950630
  32.8146170  12.3664270  14.8228390  46.7554050   5.7109460  14.9363060
  46.4675750   6.1722150  15.7240940  47.5506220   5.2507230  15.2047280
  32.9395690  10.0859240  28.5235760  33.0486810   9.1453980  28.3831150
  32.2876250  10.3513990  27.8749490  40.9308280   8.3575130  29.9233880
  40.6105150   7.6384370  30.4679570  40.2566640   9.0330200  29.9969940
  38.9722450   9.2035580  14.8667030  38.9632550   9.9365270  14.2511540
  38.0520810   8.9567160  14.9593990  34.5729090   4.4250470  15.6113790
  33.9657040   5.1649370  15.6209090  35.0478440   4.5149830  14.7851990
  41.9582050   9.2663820  13.5292220  42.0594030   9.0627810  12.5994200
  41.0583790   9.0122100  13.7340000  40.6000160  11.7850140  18.2239890
  40.8541660  11.7471530  17.3019260  39.6512640  11.6583470  18.2168140
  46.6052740   2.7042020  19.7998400  45.6642880   2.7192250  19.9746090
  46.9196810   1.9177980  20.2458700  36.5834380   4.3861620  13.3602360
  37.3497650   4.2742980  13.9227790  36.6609070   3.6899590  12.7079130
  48.6078320   9.8750870  21.4752660  48.7325740  10.6982040  21.9476470
  49.4743880   9.6641600  21.1276810  36.0795850  11.9682080  21.1469790
  36.8158330  11.4197540  21.4178360  36.4636770  12.8338090  21.0075780
  32.9641330   8.0355650  17.0211300  32.0381110   8.2776790  17.0116710
  33.4297760   8.8629910  16.8996050  35.0854130  11.1528150  30.3355370
  35.8866860  11.4740200  30.7490770  34.5705950  10.7923730  31.0575280
  39.1898160  11.1412390  12.9695360  39.9826770  11.4301220  12.5177150
  38.6702510  10.7104560  12.2907840  43.9218760   7.2608020  30.2830780
  43.3156920   7.2839620  29.5426530  43.6172870   6.5291060  30.8198030
  45.3519130  10.9888310  28.8940190  46.3040880  10.9046330  28.8440430
  45.2047350  11.6530020  29.5673980  48.2428330  10.3682520  14.3932100
  47.9569840   9.9547660  13.5786280  48.0447880  11.2970230  14.2732620
  32.8051940   3.6401610  29.2791420  33.3090960   3.0608890  29.8507650
  32.0659360   3.9241840  29.8167790  39.7075560   6.3615800  12.8337710
  39.6026200   5.7468150  13.5599090  39.5399780   5.8381690  12.0500720
  39.8589880   5.0472600  28.8126940  39.0935550   5.6157600  28.7281610
  40.0405840   4.7548810  27.9195170  42.9478290   5.4235830  13.4379700
  42.3988390   5.8705130  14.0822440  43.5697550   4.9185080  13.9617370
  47.0013230   6.7777930  29.3701960  47.7422700   7.1153690  28.8669420
  46.2385910   6.9469990  28.8171730  34.8375020   1.7831200  30.1741490
  34.8780360   1.4845070  31.0826720  35.6920520   2.1838810  30.0149010
  38.6153410   4.3826750  15.3345000  39.0369830   4.2166620  16.1776390
  38.7404250   3.5726980  14.8400140  41.1281050   3.4064360  12.5822100
  41.6486710   2.6913380  12.2163250  41.7749450   4.0450230  12.8822610
  45.6758890   4.8292760  27.9057170  46.0899910   4.9837840  28.7547590
  44.7409890   4.9547980  28.0682950  46.1481060   2.1688920  29.9096320
  46.7301830   1.4141240  29.8216800  46.3242830   2.6996360  29.1327800
  40.4374120   4.7813240  25.8753100  40.8562230   5.6245970  25.7029340
  39.5182750   4.9185280  25.6459880  42.7738020   2.5129420  27.2590940
  42.8934230   1.9170560  27.9985780  43.6332020   2.5499110  26.8392240
  45.1125920   3.0666610  25.8353450  44.5861140   3.5909230  25.2318590
  45.4557260   3.6994000  26.4663180  38.2881540  11.0866250  26.9910830
  37.7502630  11.8112310  26.6719530  38.5415500  10.6096590  26.2008170
  41.1443750  12.3217460  27.2497480  41.0702450  13.2252600  27.5569850
  40.2422590  12.0029360  27.2219550  41.6929080  11.4875970  14.8723840
  42.5879870  11.8260940  14.8942600  41.7246710  10.7655380  14.2448120
  35.3325240   6.8603020  13.1010840  35.7700110   7.4032690  13.7568420
  35.8172970   6.0349970  13.1107180  32.5471040   9.6492050  20.5531100
  32.8774050   8.7813110  20.3209740  32.9762040   9.8550570  21.3836060
  37.1432960   7.9801060  18.2133070  36.8428500   7.8566030  19.1136980
  37.0370450   7.1209650  17.8048800  33.0361250  10.5162640  23.2912730
  32.5992240  10.6963440  24.1236880  33.6038930  11.2737260  23.1494450
  48.6723430  10.0179640  27.5790040  48.0725420  10.0772200  26.8353960
  48.8017330   9.0784620  27.7086890  49.9124880   7.7597460  12.9159750
  49.0817840   7.8274110  13.3866980  50.0896710   8.6501580  12.6126610
  49.3681340   4.5044940  15.4193950  50.1300250   5.0741590  15.5253640
  49.3835710   3.9372140  16.1902260  32.8685680   3.0282870  19.6501610
  32.2134520   2.7594510  19.0061310  33.7063630   2.9187350  19.2003590
  50.3741310   5.3595040  20.2635880  50.7450140   4.5762360  19.8571850
  51.0143240   6.0484140  20.0853180  47.3575070   6.7431620  25.6766200
  46.5434910   7.1728780  25.9391990  47.7649270   7.3550030  25.0635250
  49.4200510   4.7979310  12.5766470  49.6949350   5.7058190  12.4485690
  49.2311250   4.7341840  13.5128460  49.3165850   2.7348300  17.5695900
  48.9409450   1.9676230  17.1377190  48.5868970   3.1171000  18.0570830
  33.9061610   3.4135440  24.1904950  34.2734650   3.3262840  25.0700970
  33.3372430   2.6501990  24.0911810  48.7065470   1.8819820  27.2035420
  48.4751560   1.6532570  26.3033370  48.9670020   2.8019370  27.1580310
  47.4151120  11.4950220  19.2034470  48.0110190  11.1734790  18.5268890
  47.6729270  11.0222040  19.9947740  35.3213690   7.9268130  29.3525100
  35.2783320   7.5561040  30.2339560  35.4524700   8.8645700  29.4926920
  39.0219720   9.4827720  24.9534820  38.7811080   9.7502280  24.0665340
  39.9622360   9.6533450  25.0085680  50.2823880  11.5022100  25.7545460
  49.7882160  11.8990970  25.0372590  49.6737170  10.8771310  26.1482740
  35.1601720  10.8730380  26.4722880  34.5662040  10.7415080  27.2112920
  35.1525560  10.0368520  26.0064980  47.9663330  12.1445520  23.0332200
  47.5066300  12.8961330  22.6590220  47.3375790  11.4251990  22.9747000
  34.7913950   8.2388760  25.4230920  34.0648010   7.6194050  25.3556870
  34.8523100   8.6329370  24.5529000  38.3959050  10.4533760  22.2080330
  38.9124070   9.8421120  21.6828590  39.0456430  10.9562540  22.6991340
  41.1354550  11.3442250  23.0349310  41.4232360  11.0896550  22.1582320
  41.6477770  10.7919610  23.6254880  33.0743950  11.5563150  18.6327680
  32.9065990  10.9233830  19.3309570  32.2078460  11.7622550  18.2821870
  34.6806650  10.2496380  16.0777820  34.1554270  10.6304410  15.3739780
  34.6051230  10.8747150  16.7987530  41.2026910  12.2658350  30.4017510
  42.1294220  12.0302620  30.4453470  41.1877340  13.0930350  29.9203540
  49.4371970  11.8083920  17.3991760  49.6124160  11.1221660  16.7552680
  48.7393540  12.3330970  17.0068430  37.2799620  12.1978760  14.9527070
  38.0118440  11.9138040  14.4050960  37.5393290  11.9592040  15.8426450
  36.4414410   8.3143490  14.9573400  35.8123290   8.7828590  15.5059230
  36.5562240   7.4692710  15.3919590  47.7704470  11.4928210  30.2258550
  48.5629790  10.9977440  30.0184510  48.0637620  12.1718350  30.8334160
  42.0282170   4.1428170   2.9883870  41.2524270   3.6628610   3.2782440
  42.6795100   3.4633820   2.8140030  36.0448000   4.4547980   3.8659630
  35.2132880   4.1996690   4.2656140  36.6528980   4.5258750   4.6017550
  46.0489600   8.5488360   1.7683000  45.5871130   7.7775600   2.0970170
  46.8615150   8.5754430   2.2735450  36.0249260   8.4888070   4.0617650
  36.3277300   7.5985810   3.8827870  36.7692850   9.0458290   3.8339900
  32.4172960   2.0155520   3.5341720  32.9889070   1.2477720   3.5345360
  32.4174500   2.3144280   2.6248330  41.4691160   6.8185360   2.9954030
  41.3999440   5.8775300   2.8343160  42.2311020   6.9086770   3.5676600
  38.0048020   5.2461480   5.4602500  37.6717400   5.8730400   6.1023570
  38.1814700   5.7723360   4.6804170  37.2167120   7.2142280   7.2751680
  37.8341120   7.8893360   6.9936130  36.3560240   7.6230260   7.1839180
  48.1344710   8.6781690   5.1906320  47.4508230   9.3480800   5.1822990
  48.6739000   8.8762340   4.4251180  45.6703450  10.5225820   3.9051500
  45.6830610  10.1188110   3.0373760  45.1178670  11.2973110   3.8012930
  45.0688890   5.4255660   5.2334110  45.4857680   5.2115770   4.3987570
  45.7928710   5.6828450   5.8042730  49.0150990   3.8242880   5.3250350
  48.1869620   3.8935970   4.8500480  49.6101470   4.4097190   4.8566180
  38.5807490   7.0839660   3.2963100  38.2835780   6.4785130   2.6170880
  39.5307310   7.1216970   3.1852460  46.6693100  10.6571530   6.9586200
  46.1923660  11.4643720   6.7658810  45.9854890  10.0049860   7.1112410
  37.6725920   6.8221350   9.9470900  36.7754450   7.0461320  10.1944300
  37.6978790   6.9456290   8.9982300  36.4997140   3.6934670   8.5228270
  36.3604910   4.5657470   8.8915670  35.6178500   3.3507480   8.3776210
  38.2977490   9.6356370  10.7313420  38.2692920  10.0399320   9.8641850
  38.1342460   8.7066730  10.5685020  50.2492310  10.4183470  12.0277590
  50.7252030  10.8966360  12.7066670  50.8699470  10.3500960  11.3023090
  32.4515790   5.4632220   4.4399180  32.5296210   5.5980990   3.4954900
  33.0657470   4.7548110   4.6327300  49.6525560   7.6096320   9.1877600
  49.7788620   7.3708200   8.2694780  49.6946940   6.7780860   9.6599680
  43.5142300  11.3124320   7.7572410  44.0286970  11.2232330   8.5594840
  42.6711380  11.6584020   8.0500320  32.5075310   6.5046390   6.9793640
  32.6706350   6.0351750   6.1613010  32.9727760   5.9969950   7.6442480
  34.0814290   5.8797820   9.1389450  33.6969080   5.2391490   9.7372410
  34.3926480   6.5833940   9.7084180  40.2311430   2.7274360   4.6198070
  40.5981560   2.2532930   5.3659410  40.0416490   3.6015930   4.9606410
  38.0210800   1.7683000   6.9382280  37.7167870   2.6474980   7.1632640
  38.9757260   1.8282790   6.9739720  47.3080570   4.9709350   3.3275520
  48.0279690   5.4664640   2.9371630  47.1062390   4.2927240   2.6829390
  42.6899370   5.0418410   9.2144520  42.6236680   4.1214080   8.9602110
  42.0604510   5.1393850   9.9289160  34.0774530   2.6085740   8.0853640
  33.7189470   3.2739590   8.6726980  33.7829090   1.7769290   8.4566260
  37.2787650   3.0669980  10.9693190  36.9787790   3.2127160  10.0721010
  38.0498890   2.5075270  10.8766580  42.6216100   7.8638980   8.9648320
  42.6360640   6.9319940   8.7467230  41.9141200   7.9498740   9.6038090
  48.8327310   4.5046320   8.3116900  48.1075500   5.0975100   8.1146290
  49.3602770   4.4969860   7.5130270  42.0550000   9.5056550   6.0588820
  42.6992220   9.7115930   6.7362240  42.4179440   8.7444950   5.6059670
  43.3282080   7.5088900   4.7766270  43.9704310   6.8082060   4.8898440
  43.8531430   8.2887340   4.5963160  45.1019700   8.3083800   7.9802330
  45.4375940   8.8950490   8.6580250  44.1820040   8.1776510   8.2100120
  32.9395690  10.0859240   9.7492270  33.0486810   9.1453980   9.6087660
  32.2876250  10.3513990   9.1006000  40.9308280   8.3575130  11.1490390
  40.6105150   7.6384370  11.6936080  40.2566640   9.0330200  11.2226450
  48.6078320   9.8750870   2.7009170  48.7325740  10.6982040   3.1732980
  49.4743880   9.6641600   2.3533320  36.0795850  11.9682080   2.3726300
  36.8158330  11.4197540   2.6434870  36.4636770  12.8338090   2.2332290
  35.0854130  11.1528150  11.5611880  35.8866860  11.4740200  11.9747280
  34.5705950  10.7923730  12.2831790  43.9218760   7.2608020  11.5087290
  43.3156920   7.2839620  10.7683040  43.6172870   6.5291060  12.0454540
  45.3519130  10.9888310  10.1196700  46.3040880  10.9046330  10.0696940
  45.2047350  11.6530020  10.7930490  32.8051940   3.6401610  10.5047930
  33.3090960   3.0608890  11.0764160  32.0659360   3.9241840  11.0424300
  39.8589880   5.0472600  10.0383450  39.0935550   5.6157600   9.9538120
  40.0405840   4.7548810   9.1451680  47.0013230   6.7777930  10.5958470
  47.7422700   7.1153690  10.0925930  46.2385910   6.9469990  10.0428240
  34.8375020   1.7831200  11.3998000  34.8780360   1.4845070  12.3083230
  35.6920520   2.1838810  11.2405520  45.6758890   4.8292760   9.1313680
  46.0899910   4.9837840   9.9804100  44.7409890   4.9547980   9.2939460
  46.1481060   2.1688920  11.1352830  46.7301830   1.4141240  11.0473310
  46.3242830   2.6996360  10.3584310  40.4374120   4.7813240   7.1009610
  40.8562230   5.6245970   6.9285850  39.5182750   4.9185280   6.8716390
  42.7738020   2.5129420   8.4847450  42.8934230   1.9170560   9.2242290
  43.6332020   2.5499110   8.0648750  45.1125920   3.0666610   7.0609960
  44.5861140   3.5909230   6.4575100  45.4557260   3.6994000   7.6919690
  38.2881540  11.0866250   8.2167340  37.7502630  11.8112310   7.8976040
  38.5415500  10.6096590   7.4264680  41.1443750  12.3217460   8.4753990
  41.0702450  13.2252600   8.7826360  40.2422590  12.0029360   8.4476060
  32.5471040   9.6492050   1.7787610  32.8774050   8.7813110   1.5466250
  32.9762040   9.8550570   2.6092570  33.0361250  10.5162640   4.5169240
  32.5992240  10.6963440   5.3493390  33.6038930  11.2737260   4.3750960
  48.6723430  10.0179640   8.8046550  48.0725420  10.0772200   8.0610470
  48.8017330   9.0784620   8.9343400  47.3575070   6.7431620   6.9022710
  46.5434910   7.1728780   7.1648500  47.7649270   7.3550030   6.2891760
  33.9061610   3.4135440   5.4161460  34.2734650   3.3262840   6.2957480
  33.3372430   2.6501990   5.3168320  48.7065470   1.8819820   8.4291930
  48.4751560   1.6532570   7.5289880  48.9670020   2.8019370   8.3836820
  35.3213690   7.9268130  10.5781610  35.2783320   7.5561040  11.4596070
  35.4524700   8.8645700  10.7183430  39.0219720   9.4827720   6.1791330
  38.7811080   9.7502280   5.2921850  39.9622360   9.6533450   6.2342190
  50.2823880  11.5022100   6.9801970  49.7882160  11.8990970   6.2629100
  49.6737170  10.8771310   7.3739250  35.1601720  10.8730380   7.6979390
  34.5662040  10.7415080   8.4369430  35.1525560  10.0368520   7.2321490
  47.9663330  12.1445520   4.2588710  47.5066300  12.8961330   3.8846730
  47.3375790  11.4251990   4.2003510  34.7913950   8.2388760   6.6487430
  34.0648010   7.6194050   6.5813380  34.8523100   8.6329370   5.7785510
  38.3959050  10.4533760   3.4336840  38.9124070   9.8421120   2.9085100
  39.0456430  10.9562540   3.9247850  41.1354550  11.3442250   4.2605820
  41.4232360  11.0896550   3.3838830  41.6477770  10.7919610   4.8511390
  41.2026910  12.2658350  11.6274020  42.1294220  12.0302620  11.6709980
  41.1877340  13.0930350  11.1460050  47.7704470  11.4928210  11.4515060
  48.5629790  10.9977440  11.2441020  48.0637620  12.1718350  12.0590670
  25.1220640  96.2366600  57.4305070  25.0414690  95.3221210  57.1596780
  24.7085060  96.7333670  56.7244780  23.2538680  98.0145620  59.3114340
  22.4780780  97.5346060  59.6012910  23.9051610  97.3351270  59.1370500
  15.6796460  93.2867320  53.9732490  14.7913160  93.6283290  53.8712370
  15.9637650  93.0867640  53.0813320  13.6429470  95.8872970  59.8572190
  14.2145580  95.1195170  59.8575830  13.6431010  96.1861730  58.9478800
  23.7252840  93.4973190  59.5453430  24.1017660  92.6245070  59.4327100
  23.6272350  93.8331890  58.6543870  17.8557850  91.8698820  55.0070870
  17.9624600  92.7702550  55.3139630  16.9450210  91.8216790  54.7165520
  27.5076960  90.9923630  56.4781770  28.3286580  90.5020200  56.5207250
  27.5411040  91.5821290  57.2313610  19.6965580  94.8385190  59.3396050
  20.2043800  95.3366160  59.9801070  20.2278820  94.0620390  59.1635410
  27.7438440  92.9324010  59.2509310  27.0394010  93.2208900  59.8312420
  28.1050600  93.7424120  58.8908870  30.8125360  92.3778800  59.6418520
  29.8650270  92.4117780  59.7733950  31.1375350  93.1917750  60.0267880
  21.3444900  88.6775980  57.9374510  21.6519880  88.1222870  57.2210010
  20.4145600  88.8120440  57.7547500  23.7325660  96.7424810  54.6734630
  22.8054940  96.6762190  54.9023100  23.8850480  97.6804940  54.5589870
  23.7194740  93.0141810  51.6701790  22.7798410  93.1755770  51.7554250
  24.0378000  93.7327490  51.1237780  27.7622950  98.3045110  55.1769880
  27.1435370  97.9664660  54.5296180  27.7447400  97.6604870  55.8849070
  19.3382300  97.2689550  57.4554360  18.9339300  96.5566800  56.9600260
  19.4245420  96.9242790  58.3442400  25.9387650  97.5431920  52.1842630
  26.3780930  96.7054350  52.0380450  26.6516070  98.1761320  52.2706770
  29.5204790  88.7974730  50.4983670  29.2077450  88.8901560  51.3982740
  30.2817260  89.3755760  50.4481100  16.0386930  96.1634530  54.9561010
  15.9184530  96.8896620  54.3442280  15.7287820  95.3937440  54.4788920
  18.5050590  89.5069600  58.3384680  18.0618740  90.2879140  58.0069200
  19.0635580  89.8299490  59.0455620  21.6209410  89.1280300  53.2190510
  20.9963590  89.1240170  53.9443820  21.5339530  88.2611260  52.8226480
  20.5426490  90.0516930  60.1974280  20.8398820  90.9579760  60.1166300
  21.0912050  89.5635710  59.5833850  18.2964810  94.6303170  56.0665930
  18.0705730  94.4140340  56.9712550  17.5157340  95.0631630  55.7211900
  25.5262570  94.6366540  54.6656580  24.9271460  95.3602340  54.4820200
  26.0742180  94.5743320  53.8833030  24.1327440  93.2730080  56.6959860
  24.5257010  93.5902280  55.8828550  24.4944290  92.3941960  56.8104380
  13.1691610  89.8630880  58.9190060  12.8804660  90.4333740  59.6315040
  13.9137370  89.3835330  59.2821290  13.3561840  93.8051000  50.1292780
  13.2736510  94.7481760  50.2707770  13.0044900  93.6625910  49.2505130
  21.1559970  92.5390030  59.1963130  21.1596030  92.0979980  58.3467670
  22.0511090  92.8607360  59.3034950  17.0062350  92.4216520  58.1557340
  16.6662400  92.8991750  58.9124390  16.2439670  91.9681640  57.7958440
  21.2180120  93.5402110  52.1869890  21.3392940  93.4988590  53.1355710
  20.8328630  94.4026260  52.0316620  20.2301620  95.8503250  51.5853190
  19.6618520  95.4021500  50.9589100  20.9390620  96.2096030  51.0518340
  14.3208430  91.3435500  57.0722010  14.0355350  90.9791170  57.9100630
  14.2587290  90.6115960  56.4585150  23.9947020  90.2364760  53.7935380
  23.1811630  89.7377930  53.7180690  23.8008970  91.0763010  53.3771730
  26.7095410  94.6084410  52.0897540  27.5975030  94.9201640  51.9148880
  26.6800500  93.7356660  51.6978120  28.9809680  95.9196250  51.5577400
  28.8973400  96.3510470  50.7073840  29.7003870  96.3794600  51.9904220
  13.8139090  96.4794450  51.0318710  14.6833940  96.7619250  51.3154630
  13.3229410  97.2930320  50.9167520  20.9773900  97.8667660  55.1526990
  21.4336680  98.6772910  55.3787180  20.6262110  97.5490800  55.9845480
  16.8785680  88.2105310  55.6249510  16.7500310  88.2023210  56.5734430
  16.0547700  88.5488400  55.2740520  28.7380420  91.4175680  53.6445220
  28.1093580  91.5221350  52.9303450  28.2432340  91.6372460  54.4339100
  20.7064450  93.6961630  55.0603100  19.9980600  94.1647970  55.5016710
  20.9908930  93.0383640  55.6948290  24.7379880  90.4212290  56.4998890
  24.6147660  90.4398420  55.5508400  25.6864440  90.4691230  56.6197290
  18.9099470  92.0046710  52.4353810  19.7590000  92.4416860  52.3694000
  18.5430740  92.3166970  53.2625870  27.8309250  96.5759470  57.3485380
  26.8899390  96.5909700  57.5233070  28.1453320  95.7895430  57.7945680
  17.8090890  98.2579070  50.9089340  18.5754160  98.1460430  51.4714770
  17.8865580  97.5617040  50.2566110  16.5037650  95.6904140  51.5922230
  16.5841240  94.7431650  51.7039630  17.3957400  96.0211020  51.6982890
  19.8409920  98.2544200  52.8831980  20.2626340  98.0884070  53.7263370
  19.9660760  97.4444430  52.3887120  22.3537560  97.2781810  50.1309080
  22.8743220  96.5630830  49.7650230  23.0005960  97.9167680  50.4309590
  18.7368820  94.3277430  49.8290140  18.5357880  93.4644790  50.1903480
  18.5660870  94.2410790  48.8911740  26.2157130  89.1385660  52.3577020
  26.4959420  88.2953560  52.7136440  25.4422860  89.3708770  52.8715770
  17.5351620  91.4278050  49.8168020  17.8377520  91.4345480  48.9087170
  18.2746210  91.0775910  50.3135680  20.7536550  90.3712670  50.8024220
  20.4058550  89.6936660  50.2226670  20.9549320  89.9102180  51.6167610
  30.5937850  98.3762390  52.9680930  31.3556760  98.9459040  53.0740620
  30.6092220  97.8089590  53.7389240  14.0942190  96.9000320  57.1988590
  13.4391030  96.6311960  56.5548290  14.9320140  96.7904800  56.7490570
  27.0432630  91.6941610  51.4207080  27.4617510  91.5072590  50.5803740
  26.7368690  90.8420660  51.7310010  30.5422360  96.6065750  55.1182880
  30.1665960  95.8393680  54.6864170  29.8125480  96.9888450  55.6057810
  13.3080270  94.1099250  53.1413920  12.4044350  94.3729450  52.9665580
  13.7920890  94.3810420  52.3613880  29.8173320  94.8323240  58.4190120
  30.3410800  94.3385890  57.7880290  30.4032740  94.9673600  59.1637690
  15.8507480  93.1664790  51.0508300  16.5599180  92.7448010  50.5655580
  15.1347420  93.2340020  50.4191650  15.4981640  89.2204120  50.0910950
  16.2209770  89.7613060  50.4092170  15.7706160  88.9467540  49.2152490
  29.3073290  94.0896590  54.3582530  29.8032410  93.8567460  55.1431410
  29.1089360  93.2508430  53.9420170  30.7360450  92.7257540  56.8920210
  30.6259730  92.5713580  57.8302480  31.4968040  92.1978480  56.6495620
  31.6250720  90.5565460  50.1326350  32.5500030  90.4246640  49.9244640
  31.6026510  90.6358280  51.0862800  31.6989210  91.3276120  52.7583060
  30.9040710  91.2621240  53.2875970  31.9032490  92.2626760  52.7468410
  28.1309140  89.6573000  59.2081890  28.5717230  89.6018100  58.3603490
  27.8616730  90.5731010  59.2792070  29.9947710  89.2888240  57.2190710
  29.9336110  88.3449460  57.0721730  30.7739740  89.3968330  57.7644170
  14.9228480  89.2597380  53.6846520  15.6807840  89.3726260  53.1110550
  14.4605650  90.0966580  53.6389950  21.4642290  91.3736650  56.6748830
  20.6516800  90.9993540  56.3344710  21.9683930  90.6181730  56.9770020
  25.9667270  88.0379100  57.9131900  26.5696640  88.6099310  58.3880420
  25.2260260  88.6018540  57.6905800  29.1101870  88.4400660  53.1872180
  29.3052500  89.3384110  53.4539610  28.3231740  88.2087740  53.6805130
  17.2953630  89.7861430  52.2248490  17.8246390  88.9991230  52.0956440
  17.9281950  90.4652620  52.4584020  19.4891470  89.5236570  55.2793880
  18.8594210  88.8223880  55.4464010  18.9496610  90.2840700  55.0627040
  25.1220640  96.2366600  38.6561580  25.0414690  95.3221210  38.3853290
  24.7085060  96.7333670  37.9501290  23.2538680  98.0145620  40.5370850
  22.4780780  97.5346060  40.8269420  23.9051610  97.3351270  40.3627010
  17.2704510  98.3265430  41.4146610  16.4389390  98.0714140  41.8143120
  17.8785490  98.3976200  42.1504530  15.6796460  93.2867320  35.1989000
  14.7913160  93.6283290  35.0968880  15.9637650  93.0867640  34.3069830
  13.6429470  95.8872970  41.0828700  14.2145580  95.1195170  41.0832340
  13.6431010  96.1861730  40.1735310  14.8854340  91.2957330  42.8697630
  14.7057180  90.3983080  43.1500390  14.4834420  91.8429200  43.5444580
  23.7252840  93.4973190  40.7709940  24.1017660  92.6245070  40.6583610
  23.6272350  93.8331890  39.8800380  17.8557850  91.8698820  36.2327380
  17.9624600  92.7702550  36.5396140  16.9450210  91.8216790  35.9422030
  27.5076960  90.9923630  37.7038280  28.3286580  90.5020200  37.7463760
  27.5411040  91.5821290  38.4570120  15.5041010  93.7917830  41.4779970
  16.1851120  94.0556200  42.0967370  15.1889060  92.9518700  41.8117980
  19.6965580  94.8385190  40.5652560  20.2043800  95.3366160  41.2057580
  20.2278820  94.0620390  40.3891920  31.7976510  93.0090380  44.2681910
  31.0928680  93.3972090  43.7497020  32.0634430  93.7040670  44.8702840
  17.9801680  89.4783750  44.8315980  17.9820120  89.9956140  44.0261880
  17.1505990  89.0013930  44.8085910  27.7438440  92.9324010  40.4765820
  27.0394010  93.2208900  41.0568930  28.1050600  93.7424120  40.1165380
  17.6617010  91.1893710  42.8386430  18.0033820  92.0335760  42.5440300
  16.7232820  91.3377450  42.9551770  30.8125360  92.3778800  40.8675030
  29.8650270  92.4117780  40.9990460  31.1375350  93.1917750  41.2524390
  21.3444900  88.6775980  39.1631020  21.6519880  88.1222870  38.4466520
  20.4145600  88.8120440  38.9804010  23.7325660  96.7424810  35.8991140
  22.8054940  96.6762190  36.1279610  23.8850480  97.6804940  35.7846380
  23.7194740  93.0141810  32.8958300  22.7798410  93.1755770  32.9810760
  24.0378000  93.7327490  32.3494290  30.2407500  97.6960330  42.8737330
  29.4126130  97.7653420  42.3987460  30.8357980  98.2814640  42.4053160
  27.7622950  98.3045110  36.4026390  27.1435370  97.9664660  35.7552690
  27.7447400  97.6604870  37.1105580  27.2049510  94.4829650  43.8192200
  26.7920690  95.3083360  44.0732190  26.4725460  93.8974690  43.6268560
  19.3382300  97.2689550  38.6810870  18.9339300  96.5566800  38.1856770
  19.4245420  96.9242790  39.5698910  18.0510920  94.0432760  42.4609910
  18.6025510  94.1528100  41.6863160  18.5654430  94.4170360  43.1765140
  25.9387650  97.5431920  33.4099140  26.3780930  96.7054350  33.2636960
  26.6516070  98.1761320  33.4963280  17.7253650  97.5652120  46.0715250
  17.5861420  98.4374920  46.4402650  16.8435010  97.2224930  45.9263190
  29.5204790  88.7974730  31.7240180  29.2077450  88.8901560  32.6239250
  30.2817260  89.3755760  31.6737610  16.0386930  96.1634530  36.1817520
  15.9184530  96.8896620  35.5698790  15.7287820  95.3937440  35.7045430
  30.7306080  93.5346230  47.7014320  30.1150350  94.0425900  47.1729780
  30.4102500  92.6344560  47.6440260  18.5050590  89.5069600  39.5641190
  18.0618740  90.2879140  39.2325710  19.0635580  89.8299490  40.2712130
  22.7920400  92.3738120  45.1676510  22.3299770  92.5821140  45.9796450
  22.3898510  91.5597470  44.8647180  27.7924910  93.5947070  46.2973170
  26.9418500  93.2952820  46.6182240  27.6326700  93.8389080  45.3856990
  24.8874620  95.0948820  48.3971960  25.2128030  94.2612570  48.0574190
  25.6754950  95.6177340  48.5450290  21.6209410  89.1280300  34.4447020
  20.9963590  89.1240170  35.1700330  21.5339530  88.2611260  34.0482990
  20.5426490  90.0516930  41.4230790  20.8398820  90.9579760  41.3422810
  21.0912050  89.5635710  40.8090360  18.2964810  94.6303170  37.2922440
  18.0705730  94.4140340  38.1969060  17.5157340  95.0631630  36.9468410
  25.5262570  94.6366540  35.8913090  24.9271460  95.3602340  35.7076710
  26.0742180  94.5743320  35.1089540  20.7364020  95.5288750  47.9582710
  20.6407620  94.5883480  47.8083110  21.5796000  95.7503820  47.5630780
  24.1327440  93.2730080  37.9216370  24.5257010  93.5902280  37.1085060
  24.4944290  92.3941960  38.0360890  15.8674560  91.9402420  46.1116490
  15.4737950  92.7877630  46.3189270  15.1792960  91.3028790  46.3025130
  22.4419610  92.0237390  49.1813230  21.7517930  91.8309590  49.8159320
  23.1851910  92.3072030  49.7137530  13.1691610  89.8630880  40.1446570
  12.8804660  90.4333740  40.8571550  13.9137370  89.3835330  40.5077800
  13.3561840  93.8051000  31.3549290  13.2736510  94.7481760  31.4964280
  13.0044900  93.6625910  30.4761640  24.7182580  95.8635830  42.0167150
  23.9863700  96.3722640  42.3657250  24.3206920  95.0465810  41.7155930
  21.1559970  92.5390030  40.4219640  21.1596030  92.0979980  39.5724180
  22.0511090  92.8607360  40.5291460  17.0062350  92.4216520  39.3813850
  16.6662400  92.8991750  40.1380900  16.2439670  91.9681640  39.0214950
  21.2180120  93.5402110  33.4126400  21.3392940  93.4988590  34.3612220
  20.8328630  94.4026260  33.2573130  25.1808490  91.3169510  41.4290090
  25.1981230  91.7678160  42.2731940  24.9324070  90.4175150  41.6423530
  20.2301620  95.8503250  32.8109700  19.6618520  95.4021500  32.1845610
  20.9390620  96.2096030  32.2774850  28.6079240  88.7301690  47.2676470
  28.9325010  87.9991350  47.7934450  28.6435750  88.4115330  46.3657460
  21.4567940  96.5991810  42.1685050  21.8238070  96.1250380  42.9146390
  21.2673000  97.4733380  42.5093390  14.3208430  91.3435500  38.2978520
  14.0355350  90.9791170  39.1357140  14.2587290  90.6115960  37.6841660
  19.2467310  95.6400450  44.4869260  18.9424380  96.5192430  44.7119620
  20.2013770  95.7000240  44.5226700  23.9947020  90.2364760  35.0191890
  23.1811630  89.7377930  34.9437200  23.8008970  91.0763010  34.6028240
  26.7095410  94.6084410  33.3154050  27.5975030  94.9201640  33.1405390
  26.6800500  93.7356660  32.9234630  15.3031040  96.4803190  45.6340620
  14.9445980  97.1457040  46.2213960  15.0085600  95.6486740  46.0053240
  18.5044160  96.9387430  48.5180170  18.2044300  97.0844610  47.6207990
  19.2755400  96.3792720  48.4253560  28.9809680  95.9196250  32.7833910
  28.8973400  96.3510470  31.9330350  29.7003870  96.3794600  33.2160730
  30.0583820  98.3763770  45.8603880  29.3332010  98.9692550  45.6633270
  30.5859280  98.3687310  45.0617250  13.8139090  96.4794450  32.2575220
  14.6833940  96.7619250  32.5411140  13.3229410  97.2930320  32.1424030
  20.9773900  97.8667660  36.3783500  21.4336680  98.6772910  36.6043690
  20.6262110  97.5490800  37.2101990  16.8785680  88.2105310  36.8506020
  16.7500310  88.2023210  37.7990940  16.0547700  88.5488400  36.4997030
  13.8779610  89.9696430  46.3112720  13.1638130  90.1693350  46.9165330
  14.2974650  89.1936000  46.6827520  25.3718390  92.4618740  44.0614170
  25.7399210  91.6413950  44.3893740  24.5116590  92.5220630  44.4769820
  28.7380420  91.4175680  34.8701730  28.1093580  91.5221350  34.1559960
  28.2432340  91.6372460  35.6595610  22.3320380  95.1158330  44.2852140
  22.8305630  95.5904150  44.9503990  22.4743330  94.1921850  44.4922170
  24.7379880  90.4212290  37.7255400  24.6147660  90.4398420  36.7764910
  25.6864440  90.4691230  37.8453800  18.9099470  92.0046710  33.6610320
  19.7590000  92.4416860  33.5950510  18.5430740  92.3166970  34.4882380
  29.5387240  91.3326290  45.1280530  29.0360840  92.0731690  45.4674340
  30.3543900  91.7210290  44.8117320  27.8309250  96.5759470  38.5741890
  26.8899390  96.5909700  38.7489580  28.1453320  95.7895430  39.0202190
  17.8090890  98.2579070  32.1345850  18.5754160  98.1460430  32.6971280
  17.8865580  97.5617040  31.4822620  16.5037650  95.6904140  32.8178740
  16.5841240  94.7431650  32.9296140  17.3957400  96.0211020  32.9239400
  14.0308450  97.5119060  48.0534910  14.5347470  96.9326340  48.6251140
  13.2915870  97.7959290  48.5911280  16.0631530  95.6548650  48.9484980
  16.1036870  95.3562520  49.8570210  16.9177030  96.0556260  48.7892500
  19.8409920  98.2544200  34.1088490  20.2626340  98.0884070  34.9519880
  19.9660760  97.4444430  33.6143630  18.0037340  94.2340750  46.9159470
  17.4733800  93.7431700  46.2882810  18.6725410  94.6624950  46.3817400
  22.3537560  97.2781810  31.3565590  22.8743220  96.5630830  30.9906740
  23.0005960  97.9167680  31.6566100  26.9015400  98.7010210  46.6800660
  27.3156420  98.8555290  47.5291080  25.9666400  98.8265430  46.8426440
  27.3737570  96.0406370  48.6839810  27.9558340  95.2858690  48.5960290
  27.5499340  96.5713810  47.9071290  18.4909640  91.2003120  46.9956760
  18.3966510  90.5823870  46.2707630  17.9107030  91.9269410  46.7686670
  21.2571080  89.7576360  44.0284150  20.8088380  89.7800620  43.1829700
  20.6236280  89.3595380  44.6254450  23.9994530  96.3846870  46.0334430
  24.1190740  95.7888010  46.7729270  24.8588530  96.4216560  45.6135730
  26.3382430  96.9384060  44.6096940  25.8117650  97.4626680  44.0062080
  26.6813770  97.5711450  45.2406670  18.7368820  94.3277430  31.0546650
  18.5357880  93.4644790  31.4159990  18.5660870  94.2410790  30.1168250
  20.7663300  92.9268220  47.2910250  21.3562990  92.6184070  47.9788070
  19.9483540  92.4547970  47.4470150  25.5856730  92.5434030  47.5243270
  24.8972250  91.8815570  47.4593260  26.3062750  92.0972300  47.9691730
  26.2157130  89.1385660  33.5833530  26.4959420  88.2953560  33.9392950
  25.4422860  89.3708770  34.0972280  17.5351620  91.4278050  31.0424530
  17.8377520  91.4345480  30.1343680  18.2746210  91.0775910  31.5392190
  20.7536550  90.3712670  32.0280730  20.4058550  89.6936660  31.4483180
  20.9549320  89.9102180  32.8424120  30.5937850  98.3762390  34.1937440
  31.3556760  98.9459040  34.2997130  30.6092220  97.8089590  34.9645750
  14.0942190  96.9000320  38.4245100  13.4391030  96.6311960  37.7804800
  14.9320140  96.7904800  37.9747080  27.0432630  91.6941610  32.6463590
  27.4617510  91.5072590  31.8060250  26.7368690  90.8420660  32.9566520
  30.5422360  96.6065750  36.3439390  30.1665960  95.8393680  35.9120680
  29.8125480  96.9888450  36.8314320  15.1318120  97.2852890  42.9648440
  15.4991160  97.1980290  43.8444460  14.5628940  96.5219440  42.8655300
  29.9321980  95.7537270  45.9778910  29.7008070  95.5250020  45.0776860
  30.1926530  96.6736820  45.9323800  14.6834120  94.1961980  46.8706860
  13.7890170  94.1628740  47.2100570  15.2231670  94.3948770  47.6358110
  28.3710050  90.9793700  48.7558610  29.2480230  90.9877100  49.1392610
  28.3830890  90.2424540  48.1450960  13.3080270  94.1099250  34.3670430
  12.4044350  94.3729450  34.1922090  13.7920890  94.3810420  33.5870390
  29.8173320  94.8323240  39.6446630  30.3410800  94.3385890  39.0136800
  30.4032740  94.9673600  40.3894200  29.9963040  94.9163110  43.1666180
  29.0465750  94.8826650  43.2811170  30.1776050  95.8263220  42.9315950
  15.8507480  93.1664790  32.2764810  16.5599180  92.7448010  31.7912090
  15.1347420  93.2340020  31.6448160  15.4981640  89.2204120  31.3167460
  16.2209770  89.7613060  31.6348680  15.7706160  88.9467540  30.4409000
  29.3073290  94.0896590  35.5839040  29.8032410  93.8567460  36.3687920
  29.1089360  93.2508430  35.1676680  15.1873830  88.4710310  41.2190080
  15.8350020  87.9207690  40.7785240  15.6075670  88.7253460  42.0405890
  30.7360450  92.7257540  38.1176720  30.6259730  92.5713580  39.0558990
  31.4968040  92.1978480  37.8752130  29.0826170  88.6651670  44.5759720
  29.7198390  89.2785810  44.9418910  29.2301060  88.7012330  43.6308950
  31.6250720  90.5565460  31.3582860  32.5500030  90.4246640  31.1501150
  31.6026510  90.6358280  32.3119310  31.6989210  91.3276120  33.9839570
  30.9040710  91.2621240  34.5132480  31.9032490  92.2626760  33.9724920
  14.9405830  88.6265980  43.9615400  14.5920650  89.0829800  44.7273580
  14.6093530  87.7323110  44.0437830  22.4530650  89.8177860  47.4834820
  22.3919540  90.4099690  48.2330230  23.3931030  89.7103820  47.3385080
  25.0905210  89.4747920  47.1227110  25.7045620  89.7927210  46.4608190
  25.6354770  88.9896510  47.7422970  15.6126470  88.1542180  47.2366170
  16.1609460  87.9730230  46.4732280  15.6781780  87.3636290  47.7722480
  25.8313250  88.0380060  43.4496400  24.9573090  88.3715170  43.2469330
  25.7224000  87.5653240  44.2748270  26.7385230  90.2450930  44.8338120
  26.4098590  89.4302690  44.4539850  27.6867530  90.2020740  44.7103810
  23.5788070  88.9549900  42.3889310  22.7959860  89.4295400  42.6686070
  23.2851000  88.0504730  42.2802490  28.1309140  89.6573000  40.4338400
  28.5717230  89.6018100  39.5860000  27.8616730  90.5731010  40.5048580
  29.9947710  89.2888240  38.4447220  29.9336110  88.3449460  38.2978240
  30.7739740  89.3968330  38.9900680  14.9228480  89.2597380  34.9103030
  15.6807840  89.3726260  34.3367060  14.4605650  90.0966580  34.8646460
  21.4642290  91.3736650  37.9005340  20.6516800  90.9993540  37.5601220
  21.9683930  90.6181730  38.2026530  25.9667270  88.0379100  39.1388410
  26.5696640  88.6099310  39.6136930  25.2260260  88.6018540  38.9162310
  29.1101870  88.4400660  34.4128690  29.3052500  89.3384110  34.6796120
  28.3231740  88.2087740  34.9061640  17.2953630  89.7861430  33.4505000
  17.8246390  88.9991230  33.3212950  17.9281950  90.4652620  33.6840530
  19.4891470  89.5236570  36.5050390  18.8594210  88.8223880  36.6720520
  18.9496610  90.2840700  36.2883550  19.6147030  88.8020550  48.9402880
  19.3331300  89.3054150  48.1763700  19.9966730  88.0042300  48.5745010
  26.2162490  88.2174130  49.5183350  26.1027940  88.5368740  50.4134870
  27.0332230  88.6186640  49.2220630  25.1220640  96.2366600  19.8818090
  25.0414690  95.3221210  19.6109800  24.7085060  96.7333670  19.1757800
  23.2538680  98.0145620  21.7627360  22.4780780  97.5346060  22.0525930
  23.9051610  97.3351270  21.5883520  17.2704510  98.3265430  22.6403120
  16.4389390  98.0714140  23.0399630  17.8785490  98.3976200  23.3761040
  15.6796460  93.2867320  16.4245510  14.7913160  93.6283290  16.3225390
  15.9637650  93.0867640  15.5326340  13.6429470  95.8872970  22.3085210
  14.2145580  95.1195170  22.3088850  13.6431010  96.1861730  21.3991820
  14.8854340  91.2957330  24.0954140  14.7057180  90.3983080  24.3756900
  14.4834420  91.8429200  24.7701090  23.7252840  93.4973190  21.9966450
  24.1017660  92.6245070  21.8840120  23.6272350  93.8331890  21.1056890
  17.8557850  91.8698820  17.4583890  17.9624600  92.7702550  17.7652650
  16.9450210  91.8216790  17.1678540  27.5076960  90.9923630  18.9294790
  28.3286580  90.5020200  18.9720270  27.5411040  91.5821290  19.6826630
  15.5041010  93.7917830  22.7036480  16.1851120  94.0556200  23.3223880
  15.1889060  92.9518700  23.0374490  19.6965580  94.8385190  21.7909070
  20.2043800  95.3366160  22.4314090  20.2278820  94.0620390  21.6148430
  31.7976510  93.0090380  25.4938420  31.0928680  93.3972090  24.9753530
  32.0634430  93.7040670  26.0959350  17.9801680  89.4783750  26.0572490
  17.9820120  89.9956140  25.2518390  17.1505990  89.0013930  26.0342420
  27.7438440  92.9324010  21.7022330  27.0394010  93.2208900  22.2825440
  28.1050600  93.7424120  21.3421890  17.6617010  91.1893710  24.0642940
  18.0033820  92.0335760  23.7696810  16.7232820  91.3377450  24.1808280
  30.8125360  92.3778800  22.0931540  29.8650270  92.4117780  22.2246970
  31.1375350  93.1917750  22.4780900  21.3444900  88.6775980  20.3887530
  21.6519880  88.1222870  19.6723030  20.4145600  88.8120440  20.2060520
  23.7325660  96.7424810  17.1247650  22.8054940  96.6762190  17.3536120
  23.8850480  97.6804940  17.0102890  23.7194740  93.0141810  14.1214810
  22.7798410  93.1755770  14.2067270  24.0378000  93.7327490  13.5750800
  30.2407500  97.6960330  24.0993840  29.4126130  97.7653420  23.6243970
  30.8357980  98.2814640  23.6309670  27.7622950  98.3045110  17.6282900
  27.1435370  97.9664660  16.9809200  27.7447400  97.6604870  18.3362090
  27.2049510  94.4829650  25.0448710  26.7920690  95.3083360  25.2988700
  26.4725460  93.8974690  24.8525070  19.3382300  97.2689550  19.9067380
  18.9339300  96.5566800  19.4113280  19.4245420  96.9242790  20.7955420
  18.0510920  94.0432760  23.6866420  18.6025510  94.1528100  22.9119670
  18.5654430  94.4170360  24.4021650  25.9387650  97.5431920  14.6355650
  26.3780930  96.7054350  14.4893470  26.6516070  98.1761320  14.7219790
  17.7253650  97.5652120  27.2971760  17.5861420  98.4374920  27.6659160
  16.8435010  97.2224930  27.1519700  29.5204790  88.7974730  12.9496690
  29.2077450  88.8901560  13.8495760  30.2817260  89.3755760  12.8994120
  16.0386930  96.1634530  17.4074030  15.9184530  96.8896620  16.7955300
  15.7287820  95.3937440  16.9301940  30.7306080  93.5346230  28.9270830
  30.1150350  94.0425900  28.3986290  30.4102500  92.6344560  28.8696770
  18.5050590  89.5069600  20.7897700  18.0618740  90.2879140  20.4582220
  19.0635580  89.8299490  21.4968640  22.7920400  92.3738120  26.3933020
  22.3299770  92.5821140  27.2052960  22.3898510  91.5597470  26.0903690
  27.7924910  93.5947070  27.5229680  26.9418500  93.2952820  27.8438750
  27.6326700  93.8389080  26.6113500  24.8874620  95.0948820  29.6228470
  25.2128030  94.2612570  29.2830700  25.6754950  95.6177340  29.7706800
  21.6209410  89.1280300  15.6703530  20.9963590  89.1240170  16.3956840
  21.5339530  88.2611260  15.2739500  20.5426490  90.0516930  22.6487300
  20.8398820  90.9579760  22.5679320  21.0912050  89.5635710  22.0346870
  18.2964810  94.6303170  18.5178950  18.0705730  94.4140340  19.4225570
  17.5157340  95.0631630  18.1724920  25.5262570  94.6366540  17.1169600
  24.9271460  95.3602340  16.9333220  26.0742180  94.5743320  16.3346050
  20.7364020  95.5288750  29.1839220  20.6407620  94.5883480  29.0339620
  21.5796000  95.7503820  28.7887290  24.1327440  93.2730080  19.1472880
  24.5257010  93.5902280  18.3341570  24.4944290  92.3941960  19.2617400
  15.8674560  91.9402420  27.3373000  15.4737950  92.7877630  27.5445780
  15.1792960  91.3028790  27.5281640  22.4419610  92.0237390  30.4069740
  21.7517930  91.8309590  31.0415830  23.1851910  92.3072030  30.9394040
  13.1691610  89.8630880  21.3703080  12.8804660  90.4333740  22.0828060
  13.9137370  89.3835330  21.7334310  13.3561840  93.8051000  12.5805800
  13.2736510  94.7481760  12.7220790  13.0044900  93.6625910  11.7018150
  24.7182580  95.8635830  23.2423660  23.9863700  96.3722640  23.5913760
  24.3206920  95.0465810  22.9412440  21.1559970  92.5390030  21.6476150
  21.1596030  92.0979980  20.7980690  22.0511090  92.8607360  21.7547970
  17.0062350  92.4216520  20.6070360  16.6662400  92.8991750  21.3637410
  16.2439670  91.9681640  20.2471460  21.2180120  93.5402110  14.6382910
  21.3392940  93.4988590  15.5868730  20.8328630  94.4026260  14.4829640
  25.1808490  91.3169510  22.6546600  25.1981230  91.7678160  23.4988450
  24.9324070  90.4175150  22.8680040  20.2301620  95.8503250  14.0366210
  19.6618520  95.4021500  13.4102120  20.9390620  96.2096030  13.5031360
  28.6079240  88.7301690  28.4932980  28.9325010  87.9991350  29.0190960
  28.6435750  88.4115330  27.5913970  21.4567940  96.5991810  23.3941560
  21.8238070  96.1250380  24.1402900  21.2673000  97.4733380  23.7349900
  14.3208430  91.3435500  19.5235030  14.0355350  90.9791170  20.3613650
  14.2587290  90.6115960  18.9098170  19.2467310  95.6400450  25.7125770
  18.9424380  96.5192430  25.9376130  20.2013770  95.7000240  25.7483210
  23.9947020  90.2364760  16.2448400  23.1811630  89.7377930  16.1693710
  23.8008970  91.0763010  15.8284750  26.7095410  94.6084410  14.5410560
  27.5975030  94.9201640  14.3661900  26.6800500  93.7356660  14.1491140
  15.3031040  96.4803190  26.8597130  14.9445980  97.1457040  27.4470470
  15.0085600  95.6486740  27.2309750  18.5044160  96.9387430  29.7436680
  18.2044300  97.0844610  28.8464500  19.2755400  96.3792720  29.6510070
  28.9809680  95.9196250  14.0090420  28.8973400  96.3510470  13.1586860
  29.7003870  96.3794600  14.4417240  30.0583820  98.3763770  27.0860390
  29.3332010  98.9692550  26.8889780  30.5859280  98.3687310  26.2873760
  13.8139090  96.4794450  13.4831730  14.6833940  96.7619250  13.7667650
  13.3229410  97.2930320  13.3680540  20.9773900  97.8667660  17.6040010
  21.4336680  98.6772910  17.8300200  20.6262110  97.5490800  18.4358500
  16.8785680  88.2105310  18.0762530  16.7500310  88.2023210  19.0247450
  16.0547700  88.5488400  17.7253540  13.8779610  89.9696430  27.5369230
  13.1638130  90.1693350  28.1421840  14.2974650  89.1936000  27.9084030
  25.3718390  92.4618740  25.2870680  25.7399210  91.6413950  25.6150250
  24.5116590  92.5220630  25.7026330  28.7380420  91.4175680  16.0958240
  28.1093580  91.5221350  15.3816470  28.2432340  91.6372460  16.8852120
  20.7064450  93.6961630  17.5116120  19.9980600  94.1647970  17.9529730
  20.9908930  93.0383640  18.1461310  22.3320380  95.1158330  25.5108650
  22.8305630  95.5904150  26.1760500  22.4743330  94.1921850  25.7178680
  24.7379880  90.4212290  18.9511910  24.6147660  90.4398420  18.0021420
  25.6864440  90.4691230  19.0710310  18.9099470  92.0046710  14.8866830
  19.7590000  92.4416860  14.8207020  18.5430740  92.3166970  15.7138890
  29.5387240  91.3326290  26.3537040  29.0360840  92.0731690  26.6930850
  30.3543900  91.7210290  26.0373830  27.8309250  96.5759470  19.7998400
  26.8899390  96.5909700  19.9746090  28.1453320  95.7895430  20.2458700
  17.8090890  98.2579070  13.3602360  18.5754160  98.1460430  13.9227790
  17.8865580  97.5617040  12.7079130  16.5037650  95.6904140  14.0435250
  16.5841240  94.7431650  14.1552650  17.3957400  96.0211020  14.1495910
  14.0308450  97.5119060  29.2791420  14.5347470  96.9326340  29.8507650
  13.2915870  97.7959290  29.8167790  16.0631530  95.6548650  30.1741490
  16.1036870  95.3562520  31.0826720  16.9177030  96.0556260  30.0149010
  19.8409920  98.2544200  15.3345000  20.2626340  98.0884070  16.1776390
  19.9660760  97.4444430  14.8400140  18.0037340  94.2340750  28.1415980
  17.4733800  93.7431700  27.5139320  18.6725410  94.6624950  27.6073910
  22.3537560  97.2781810  12.5822100  22.8743220  96.5630830  12.2163250
  23.0005960  97.9167680  12.8822610  26.9015400  98.7010210  27.9057170
  27.3156420  98.8555290  28.7547590  25.9666400  98.8265430  28.0682950
  27.3737570  96.0406370  29.9096320  27.9558340  95.2858690  29.8216800
  27.5499340  96.5713810  29.1327800  18.4909640  91.2003120  28.2213270
  18.3966510  90.5823870  27.4964140  17.9107030  91.9269410  27.9943180
  21.2571080  89.7576360  25.2540660  20.8088380  89.7800620  24.4086210
  20.6236280  89.3595380  25.8510960  23.9994530  96.3846870  27.2590940
  24.1190740  95.7888010  27.9985780  24.8588530  96.4216560  26.8392240
  26.3382430  96.9384060  25.8353450  25.8117650  97.4626680  25.2318590
  26.6813770  97.5711450  26.4663180  18.7368820  94.3277430  12.2803160
  18.5357880  93.4644790  12.6416500  18.5660870  94.2410790  11.3424760
  20.7663300  92.9268220  28.5166760  21.3562990  92.6184070  29.2044580
  19.9483540  92.4547970  28.6726660  25.5856730  92.5434030  28.7499780
  24.8972250  91.8815570  28.6849770  26.3062750  92.0972300  29.1948240
  26.2157130  89.1385660  14.8090040  26.4959420  88.2953560  15.1649460
  25.4422860  89.3708770  15.3228790  17.5351620  91.4278050  12.2681040
  17.8377520  91.4345480  11.3600190  18.2746210  91.0775910  12.7648700
  20.7536550  90.3712670  13.2537240  20.4058550  89.6936660  12.6739690
  20.9549320  89.9102180  14.0680630  30.5937850  98.3762390  15.4193950
  31.3556760  98.9459040  15.5253640  30.6092220  97.8089590  16.1902260
  14.0942190  96.9000320  19.6501610  13.4391030  96.6311960  19.0061310
  14.9320140  96.7904800  19.2003590  27.0432630  91.6941610  13.8720100
  27.4617510  91.5072590  13.0316760  26.7368690  90.8420660  14.1823030
  30.5422360  96.6065750  17.5695900  30.1665960  95.8393680  17.1377190
  29.8125480  96.9888450  18.0570830  15.1318120  97.2852890  24.1904950
  15.4991160  97.1980290  25.0700970  14.5628940  96.5219440  24.0911810
  29.9321980  95.7537270  27.2035420  29.7008070  95.5250020  26.3033370
  30.1926530  96.6736820  27.1580310  14.6834120  94.1961980  28.0963370
  13.7890170  94.1628740  28.4357080  15.2231670  94.3948770  28.8614620
  28.3710050  90.9793700  29.9815120  29.2480230  90.9877100  30.3649120
  28.3830890  90.2424540  29.3707470  13.3080270  94.1099250  15.5926940
  12.4044350  94.3729450  15.4178600  13.7920890  94.3810420  14.8126900
  29.8173320  94.8323240  20.8703140  30.3410800  94.3385890  20.2393310
  30.4032740  94.9673600  21.6150710  29.9963040  94.9163110  24.3922690
  29.0465750  94.8826650  24.5067680  30.1776050  95.8263220  24.1572460
  15.8507480  93.1664790  13.5021320  16.5599180  92.7448010  13.0168600
  15.1347420  93.2340020  12.8704670  15.4981640  89.2204120  12.5423970
  16.2209770  89.7613060  12.8605190  15.7706160  88.9467540  11.6665510
  29.3073290  94.0896590  16.8095550  29.8032410  93.8567460  17.5944430
  29.1089360  93.2508430  16.3933190  15.1873830  88.4710310  22.4446590
  15.8350020  87.9207690  22.0041750  15.6075670  88.7253460  23.2662400
  30.7360450  92.7257540  19.3433230  30.6259730  92.5713580  20.2815500
  31.4968040  92.1978480  19.1008640  29.0826170  88.6651670  25.8016230
  29.7198390  89.2785810  26.1675420  29.2301060  88.7012330  24.8565460
  31.6250720  90.5565460  12.5839370  32.5500030  90.4246640  12.3757660
  31.6026510  90.6358280  13.5375820  31.6989210  91.3276120  15.2096080
  30.9040710  91.2621240  15.7388990  31.9032490  92.2626760  15.1981430
  14.9405830  88.6265980  25.1871910  14.5920650  89.0829800  25.9530090
  14.6093530  87.7323110  25.2694340  22.4530650  89.8177860  28.7091330
  22.3919540  90.4099690  29.4586740  23.3931030  89.7103820  28.5641590
  25.0905210  89.4747920  28.3483620  25.7045620  89.7927210  27.6864700
  25.6354770  88.9896510  28.9679480  15.6126470  88.1542180  28.4622680
  16.1609460  87.9730230  27.6988790  15.6781780  87.3636290  28.9978990
  25.8313250  88.0380060  24.6752910  24.9573090  88.3715170  24.4725840
  25.7224000  87.5653240  25.5004780  26.7385230  90.2450930  26.0594630
  26.4098590  89.4302690  25.6796360  27.6867530  90.2020740  25.9360320
  23.5788070  88.9549900  23.6145820  22.7959860  89.4295400  23.8942580
  23.2851000  88.0504730  23.5059000  28.1309140  89.6573000  21.6594910
  28.5717230  89.6018100  20.8116510  27.8616730  90.5731010  21.7305090
  29.9947710  89.2888240  19.6703730  29.9336110  88.3449460  19.5234750
  30.7739740  89.3968330  20.2157190  14.9228480  89.2597380  16.1359540
  15.6807840  89.3726260  15.5623570  14.4605650  90.0966580  16.0902970
  21.4642290  91.3736650  19.1261850  20.6516800  90.9993540  18.7857730
  21.9683930  90.6181730  19.4283040  25.9667270  88.0379100  20.3644920
  26.5696640  88.6099310  20.8393440  25.2260260  88.6018540  20.1418820
  29.1101870  88.4400660  15.6385200  29.3052500  89.3384110  15.9052630
  28.3231740  88.2087740  16.1318150  17.2953630  89.7861430  14.6761510
  17.8246390  88.9991230  14.5469460  17.9281950  90.4652620  14.9097040
  19.4891470  89.5236570  17.7306900  18.8594210  88.8223880  17.8977030
  18.9496610  90.2840700  17.5140060  19.6147030  88.8020550  30.1659390
  19.3331300  89.3054150  29.4020210  19.9966730  88.0042300  29.8001520
  26.2162490  88.2174130  30.7439860  26.1027940  88.5368740  31.6391380
  27.0332230  88.6186640  30.4477140  23.2538680  98.0145620   2.9883870
  22.4780780  97.5346060   3.2782440  23.9051610  97.3351270   2.8140030
  17.2704510  98.3265430   3.8659630  16.4389390  98.0714140   4.2656140
  17.8785490  98.3976200   4.6017550  13.6429470  95.8872970   3.5341720
  14.2145580  95.1195170   3.5345360  13.6431010  96.1861730   2.6248330
  14.8854340  91.2957330   5.3210650  14.7057180  90.3983080   5.6013410
  14.4834420  91.8429200   5.9957600  23.7252840  93.4973190   3.2222960
  24.1017660  92.6245070   3.1096630  23.6272350  93.8331890   2.3313400
  15.5041010  93.7917830   3.9292990  16.1851120  94.0556200   4.5480390
  15.1889060  92.9518700   4.2631000  19.6965580  94.8385190   3.0165580
  20.2043800  95.3366160   3.6570600  20.2278820  94.0620390   2.8404940
  31.7976510  93.0090380   6.7194930  31.0928680  93.3972090   6.2010040
  32.0634430  93.7040670   7.3215860  17.9801680  89.4783750   7.2829000
  17.9820120  89.9956140   6.4774900  17.1505990  89.0013930   7.2598930
  27.7438440  92.9324010   2.9278840  27.0394010  93.2208900   3.5081950
  28.1050600  93.7424120   2.5678400  17.6617010  91.1893710   5.2899450
  18.0033820  92.0335760   4.9953320  16.7232820  91.3377450   5.4064790
  30.8125360  92.3778800   3.3188050  29.8650270  92.4117780   3.4503480
  31.1375350  93.1917750   3.7037410  30.2407500  97.6960330   5.3250350
  29.4126130  97.7653420   4.8500480  30.8357980  98.2814640   4.8566180
  27.2049510  94.4829650   6.2705220  26.7920690  95.3083360   6.5245210
  26.4725460  93.8974690   6.0781580  18.0510920  94.0432760   4.9122930
  18.6025510  94.1528100   4.1376180  18.5654430  94.4170360   5.6278160
  17.7253650  97.5652120   8.5228270  17.5861420  98.4374920   8.8915670
  16.8435010  97.2224930   8.3776210  30.7306080  93.5346230  10.1527340
  30.1150350  94.0425900   9.6242800  30.4102500  92.6344560  10.0953280
  18.5050590  89.5069600   2.0154210  18.0618740  90.2879140   1.6838730
  19.0635580  89.8299490   2.7225150  22.7920400  92.3738120   7.6189530
  22.3299770  92.5821140   8.4309470  22.3898510  91.5597470   7.3160200
  27.7924910  93.5947070   8.7486190  26.9418500  93.2952820   9.0695260
  27.6326700  93.8389080   7.8370010  24.8874620  95.0948820  10.8484980
  25.2128030  94.2612570  10.5087210  25.6754950  95.6177340  10.9963310
  20.5426490  90.0516930   3.8743810  20.8398820  90.9579760   3.7935830
  21.0912050  89.5635710   3.2603380  20.7364020  95.5288750  10.4095730
  20.6407620  94.5883480  10.2596130  21.5796000  95.7503820  10.0143800
  15.8674560  91.9402420   8.5629510  15.4737950  92.7877630   8.7702290
  15.1792960  91.3028790   8.7538150  22.4419610  92.0237390  11.6326250
  21.7517930  91.8309590  12.2672340  23.1851910  92.3072030  12.1650550
  13.1691610  89.8630880   2.5959590  12.8804660  90.4333740   3.3084570
  13.9137370  89.3835330   2.9590820  24.7182580  95.8635830   4.4680170
  23.9863700  96.3722640   4.8170270  24.3206920  95.0465810   4.1668950
  21.1559970  92.5390030   2.8732660  21.1596030  92.0979980   2.0237200
  22.0511090  92.8607360   2.9804480  17.0062350  92.4216520   1.8326870
  16.6662400  92.8991750   2.5893920  16.2439670  91.9681640   1.4727970
  25.1808490  91.3169510   3.8803110  25.1981230  91.7678160   4.7244960
  24.9324070  90.4175150   4.0936550  28.6079240  88.7301690   9.7189490
  28.9325010  87.9991350  10.2447470  28.6435750  88.4115330   8.8170480
  21.4567940  96.5991810   4.6198070  21.8238070  96.1250380   5.3659410
  21.2673000  97.4733380   4.9606410  19.2467310  95.6400450   6.9382280
  18.9424380  96.5192430   7.1632640  20.2013770  95.7000240   6.9739720
  15.3031040  96.4803190   8.0853640  14.9445980  97.1457040   8.6726980
  15.0085600  95.6486740   8.4566260  18.5044160  96.9387430  10.9693190
  18.2044300  97.0844610  10.0721010  19.2755400  96.3792720  10.8766580
  30.0583820  98.3763770   8.3116900  29.3332010  98.9692550   8.1146290
  30.5859280  98.3687310   7.5130270  13.8779610  89.9696430   8.7625740
  13.1638130  90.1693350   9.3678350  14.2974650  89.1936000   9.1340540
  25.3718390  92.4618740   6.5127190  25.7399210  91.6413950   6.8406760
  24.5116590  92.5220630   6.9282840  22.3320380  95.1158330   6.7365160
  22.8305630  95.5904150   7.4017010  22.4743330  94.1921850   6.9435190
  29.5387240  91.3326290   7.5793550  29.0360840  92.0731690   7.9187360
  30.3543900  91.7210290   7.2630340  14.0308450  97.5119060  10.5047930
  14.5347470  96.9326340  11.0764160  13.2915870  97.7959290  11.0424300
  16.0631530  95.6548650  11.3998000  16.1036870  95.3562520  12.3083230
  16.9177030  96.0556260  11.2405520  18.0037340  94.2340750   9.3672490
  17.4733800  93.7431700   8.7395830  18.6725410  94.6624950   8.8330420
  26.9015400  98.7010210   9.1313680  27.3156420  98.8555290   9.9804100
  25.9666400  98.8265430   9.2939460  27.3737570  96.0406370  11.1352830
  27.9558340  95.2858690  11.0473310  27.5499340  96.5713810  10.3584310
  18.4909640  91.2003120   9.4469780  18.3966510  90.5823870   8.7220650
  17.9107030  91.9269410   9.2199690  21.2571080  89.7576360   6.4797170
  20.8088380  89.7800620   5.6342720  20.6236280  89.3595380   7.0767470
  23.9994530  96.3846870   8.4847450  24.1190740  95.7888010   9.2242290
  24.8588530  96.4216560   8.0648750  26.3382430  96.9384060   7.0609960
  25.8117650  97.4626680   6.4575100  26.6813770  97.5711450   7.6919690
  20.7663300  92.9268220   9.7423270  21.3562990  92.6184070  10.4301090
  19.9483540  92.4547970   9.8983170  25.5856730  92.5434030   9.9756290
  24.8972250  91.8815570   9.9106280  26.3062750  92.0972300  10.4204750
  15.1318120  97.2852890   5.4161460  15.4991160  97.1980290   6.2957480
  14.5628940  96.5219440   5.3168320  29.9321980  95.7537270   8.4291930
  29.7008070  95.5250020   7.5289880  30.1926530  96.6736820   8.3836820
  14.6834120  94.1961980   9.3219880  13.7890170  94.1628740   9.6613590
  15.2231670  94.3948770  10.0871130  28.3710050  90.9793700  11.2071630
  29.2480230  90.9877100  11.5905630  28.3830890  90.2424540  10.5963980
  29.8173320  94.8323240   2.0959650  30.3410800  94.3385890   1.4649820
  30.4032740  94.9673600   2.8407220  29.9963040  94.9163110   5.6179200
  29.0465750  94.8826650   5.7324190  30.1776050  95.8263220   5.3828970
  15.1873830  88.4710310   3.6703100  15.8350020  87.9207690   3.2298260
  15.6075670  88.7253460   4.4918910  29.0826170  88.6651670   7.0272740
  29.7198390  89.2785810   7.3931930  29.2301060  88.7012330   6.0821970
  14.9405830  88.6265980   6.4128420  14.5920650  89.0829800   7.1786600
  14.6093530  87.7323110   6.4950850  22.4530650  89.8177860   9.9347840
  22.3919540  90.4099690  10.6843250  23.3931030  89.7103820   9.7898100
  25.0905210  89.4747920   9.5740130  25.7045620  89.7927210   8.9121210
  25.6354770  88.9896510  10.1935990  15.6126470  88.1542180   9.6879190
  16.1609460  87.9730230   8.9245300  15.6781780  87.3636290  10.2235500
  25.8313250  88.0380060   5.9009420  24.9573090  88.3715170   5.6982350
  25.7224000  87.5653240   6.7261290  26.7385230  90.2450930   7.2851140
  26.4098590  89.4302690   6.9052870  27.6867530  90.2020740   7.1616830
  23.5788070  88.9549900   4.8402330  22.7959860  89.4295400   5.1199090
  23.2851000  88.0504730   4.7315510  28.1309140  89.6573000   2.8851420
  28.5717230  89.6018100   2.0373020  27.8616730  90.5731010   2.9561600
  19.6147030  88.8020550  11.3915900  19.3331300  89.3054150  10.6276720
  19.9966730  88.0042300  11.0258030  26.2162490  88.2174130  11.9696370
  26.1027940  88.5368740  12.8647890  27.0332230  88.6186640  11.6733650
  25.1220640  77.4623110  57.4305070  25.0414690  76.5477720  57.1596780
  24.7085060  77.9590180  56.7244780  23.2538680  79.2402130  59.3114340
  22.4780780  78.7602570  59.6012910  23.9051610  78.5607780  59.1370500
  27.2746110  83.6462320  58.0913470  26.8127640  82.8749560  58.4200640
  28.0871660  83.6728390  58.5965920  15.6796460  74.5123830  53.9732490
  14.7913160  74.8539800  53.8712370  15.9637650  74.3124150  53.0813320
  13.6429470  77.1129480  59.8572190  14.2145580  76.3451680  59.8575830
  13.6431010  77.4118240  58.9478800  23.5009420  85.9320330  57.7117460
  22.8820860  86.3877830  57.1411900  24.3561200  86.0871790  57.3107160
  22.6947670  81.9159320  59.3184500  22.6255950  80.9749260  59.1573630
  23.4567530  82.0060730  59.8907070  23.7252840  74.7229700  59.5453430
  24.1017660  73.8501580  59.4327100  23.6272350  75.0588400  58.6543870
  17.8557850  73.0955330  55.0070870  17.9624600  73.9959060  55.3139630
  16.9450210  73.0473300  54.7165520  27.5076960  72.2180140  56.4781770
  28.3286580  71.7276710  56.5207250  27.5411040  72.8077800  57.2313610
  19.6965580  76.0641700  59.3396050  20.2043800  76.5622670  59.9801070
  20.2278820  75.2876900  59.1635410  24.3672770  80.8159570  55.1049370
  23.7490040  81.2809020  54.5412090  24.8796020  81.5087050  55.5218880
  27.7438440  74.1580520  59.2509310  27.0394010  74.4465410  59.8312420
  28.1050600  74.9680630  58.8908870  13.7355970  81.5016100  52.4789000
  13.3583950  81.9903200  51.7473900  13.9929040  82.1741380  53.1095530
  30.8125360  73.6035310  59.6418520  29.8650270  73.6374290  59.7733950
  31.1375350  74.4174260  60.0267880  21.3444900  69.9032490  57.9374510
  21.6519880  69.3479380  57.2210010  20.4145600  70.0376950  57.7547500
  26.8959960  85.6199780  60.2281970  26.9087120  85.2162070  59.3604230
  26.3435180  86.3947070  60.1243400  28.1905380  82.3416000  55.3172140
  28.0801710  81.3990330  55.4421560  28.1873630  82.7031640  56.2034900
  23.7325660  77.9681320  54.6734630  22.8054940  77.9018700  54.9023100
  23.8850480  78.9061450  54.5589870  27.7622950  79.5301620  55.1769880
  27.1435370  79.1921170  54.5296180  27.7447400  78.8861380  55.8849070
  19.3382300  78.4946060  57.4554360  18.9339300  77.7823310  56.9600260
  19.4245420  78.1499300  58.3442400  19.8064000  82.1813620  59.6193570
  19.5092290  81.5759090  58.9401350  20.7563820  82.2190930  59.5082930
  25.9387650  78.7688430  52.1842630  26.3780930  77.9310860  52.0380450
  26.6516070  79.4017830  52.2706770  24.0483030  83.7084500  56.1523870
  24.4878940  84.4508830  55.7379260  23.9869920  83.9511070  57.0762830
  16.0386930  77.3891040  54.9561010  15.9184530  78.1153130  54.3442280
  15.7287820  76.6193950  54.4788920  14.9219930  82.2606370  57.1735830
  14.5148010  82.4020960  56.3189430  15.8132940  81.9766530  56.9707040
  26.7153210  86.6953620  53.5086880  26.5554350  86.4056560  54.4068710
  26.5499920  85.9193750  52.9732110  19.1941590  86.4752150  55.2858500
  19.0184070  85.5587690  55.0726300  18.3397330  86.8339440  55.5256300
  26.4179340  84.2041180  52.0684880  25.7244500  84.2018470  51.4087160
  27.1602200  83.7800500  51.6379050  25.9829270  85.8303890  56.1433370
  26.4386220  85.0493270  56.4571990  26.3221790  86.5410710  56.6874550
  18.5050590  70.7326110  58.3384680  18.0618740  71.5135650  58.0069200
  19.0635580  71.0556000  59.0455620  21.6209410  70.3536810  53.2190510
  20.9963590  70.3496680  53.9443820  21.5339530  69.4867770  52.8226480
  20.5426490  71.2773440  60.1974280  20.8398820  72.1836270  60.1166300
  21.0912050  70.7892220  59.5833850  18.2964810  75.8559680  56.0665930
  18.0705730  75.6396850  56.9712550  17.5157340  76.2888140  55.7211900
  25.5262570  75.8623050  54.6656580  24.9271460  76.5858850  54.4820200
  26.0742180  75.7999830  53.8833030  24.1327440  74.4986590  56.6959860
  24.5257010  74.8158790  55.8828550  24.4944290  73.6198470  56.8104380
  13.1691610  71.0887390  58.9190060  12.8804660  71.6590250  59.6315040
  13.9137370  70.6091840  59.2821290  13.3561840  75.0307510  50.1292780
  13.2736510  75.9738270  50.2707770  13.0044900  74.8882420  49.2505130
  21.1559970  73.7646540  59.1963130  21.1596030  73.3236490  58.3467670
  22.0511090  74.0863870  59.3034950  17.0062350  73.6473030  58.1557340
  16.6662400  74.1248260  58.9124390  16.2439670  73.1938150  57.7958440
  21.2180120  74.7658620  52.1869890  21.3392940  74.7245100  53.1355710
  20.8328630  75.6282770  52.0316620  20.2301620  77.0759760  51.5853190
  19.6618520  76.6278010  50.9589100  20.9390620  77.4352540  51.0518340
  14.3208430  72.5692010  57.0722010  14.0355350  72.2047680  57.9100630
  14.2587290  71.8372470  56.4585150  17.7749100  81.0717950  53.8579600
  17.0011360  80.5315570  53.6978320  18.5043730  80.5524560  53.5197360
  28.5337080  80.0683310  59.6505990  29.2536200  80.5638600  59.2602100
  28.3318900  79.3901200  59.0059860  23.9947020  71.4621270  53.7935380
  23.1811630  70.9634440  53.7180690  23.8008970  72.3019520  53.3771730
  26.7095410  75.8340920  52.0897540  27.5975030  76.1458150  51.9148880
  26.6800500  74.9613170  51.6978120  17.8186500  80.7398330  57.4958410
  18.3365170  79.9366590  57.4415300  17.3670520  80.6777470  58.3375240
  22.7056000  82.0064610  52.7685710  23.0471700  82.7506840  52.2729030
  21.8768710  82.3195730  53.1310540  28.9809680  77.1452760  51.5577400
  28.8973400  77.5766980  50.7073840  29.7003870  77.6051110  51.9904220
  30.0096930  83.9995020  54.2859530  29.3673090  83.3450640  54.5603250
  29.6227590  84.4050110  53.5100200  25.5883410  81.3280450  58.1331220
  25.9407230  80.7308580  57.4732590  24.7045740  81.0024680  58.3039470
  21.6746690  82.0878140  55.5401630  22.3617820  82.6347350  55.9209220
  20.8879110  82.6318870  55.5751240  13.8139090  77.7050960  51.0318710
  14.6833940  77.9875760  51.3154630  13.3229410  78.5186830  50.9167520
  20.9773900  79.0924170  55.1526990  21.4336680  79.9029420  55.3787180
  20.6262110  78.7747310  55.9845480  16.8785680  69.4361820  55.6249510
  16.7500310  69.4279720  56.5734430  16.0547700  69.7744910  55.2740520
  28.3994310  82.8911480  50.8235880  28.1731890  82.1741920  51.4160520
  28.0090510  82.6423920  49.9857630  14.1810340  86.9178340  51.5980340
  14.5407980  87.5167680  50.9437610  14.0402680  87.4638230  52.3715370
  27.9810560  80.8083420  52.4850040  27.6932260  81.2696110  53.2727920
  28.7762730  80.3481190  52.7534260  20.1978960  84.3009540  52.4154010
  20.1889060  85.0339230  51.7998520  19.2777320  84.0541120  52.5080970
  15.7985600  79.5224430  53.1600770  15.1913550  80.2623330  53.1696070
  16.2734950  79.6123790  52.3338970  28.7380420  72.6432190  53.6445220
  28.1093580  72.7477860  52.9303450  28.2432340  72.8628970  54.4339100
  23.1838560  84.3637780  51.0779200  23.2850540  84.1601770  50.1481180
  22.2840300  84.1096060  51.2826980  20.7064450  74.9218140  55.0603100
  19.9980600  75.3904480  55.5016710  20.9908930  74.2640150  55.6948290
  24.7379880  71.6468800  56.4998890  24.6147660  71.6654930  55.5508400
  25.6864440  71.6947740  56.6197290  21.8256670  86.8824100  55.7726870
  22.0798170  86.8445490  54.8506240  20.8769150  86.7557430  55.7655120
  18.9099470  73.2303220  52.4353810  19.7590000  73.6673370  52.3694000
  18.5430740  73.5423480  53.2625870  27.8309250  77.8015980  57.3485380
  26.8899390  77.8166210  57.5233070  28.1453320  77.0151940  57.7945680
  17.8090890  79.4835580  50.9089340  18.5754160  79.3716940  51.4714770
  17.8865580  78.7873550  50.2566110  16.5037650  76.9160650  51.5922230
  16.5841240  75.9688160  51.7039630  17.3957400  77.2467530  51.6982890
  29.8334830  84.9724830  59.0239640  29.9582250  85.7956000  59.4963450
  30.7000390  84.7615560  58.6763790  17.3052360  87.0656040  58.6956770
  18.0414840  86.5171500  58.9665340  17.6893280  87.9312050  58.5562760
  14.1897840  83.1329610  54.5698280  13.2637620  83.3750750  54.5603690
  14.6554270  83.9603870  54.4483030  20.4154670  86.2386350  50.5182340
  21.2083280  86.5275180  50.0664130  19.8959020  85.8078520  49.8394820
  29.4684840  85.4656480  51.9419080  29.1826350  85.0521620  51.1273260
  29.2704390  86.3944190  51.8219600  20.9332070  81.4589760  50.3824690
  20.8282710  80.8442110  51.1086070  20.7656290  80.9355650  49.5987700
  24.1734800  80.5209790  50.9866680  23.6244900  80.9679090  51.6309420
  24.7954060  80.0159040  51.5104350  19.8409920  79.4800710  52.8831980
  20.2626340  79.3140580  53.7263370  19.9660760  78.6700940  52.3887120
  22.3537560  78.5038320  50.1309080  22.8743220  77.7887340  49.7650230
  23.0005960  79.1424190  50.4309590  18.7368820  75.5533940  49.8290140
  18.5357880  74.6901300  50.1903480  18.5660870  75.4667300  48.8911740
  26.2157130  70.3642170  52.3577020  26.4959420  69.5210070  52.7136440
  25.4422860  70.5965280  52.8715770  17.5351620  72.6534560  49.8168020
  17.8377520  72.6601990  48.9087170  18.2746210  72.3032420  50.3135680
  22.9185590  86.5849930  52.4210820  23.8136380  86.9234900  52.4429580
  22.9503220  85.8629340  51.7935100  16.5581750  81.9576980  50.6497820
  16.9956620  82.5006650  51.3055400  17.0429480  81.1323930  50.6594160
  13.7727550  84.7466010  58.1018080  14.1030560  83.8787070  57.8696720
  14.2018550  84.9524530  58.9323040  18.3689470  83.0775020  55.7620050
  18.0685010  82.9539990  56.6623960  18.2626960  82.2183610  55.3535780
  31.1381390  82.8571420  50.4646730  30.3074350  82.9248070  50.9353960
  31.3153220  83.7475540  50.1613590  30.5937850  79.6018900  52.9680930
  31.3556760  80.1715550  53.0740620  30.6092220  79.0346100  53.7389240
  14.0942190  78.1256830  57.1988590  13.4391030  77.8568470  56.5548290
  14.9320140  78.0161310  56.7490570  31.5997820  80.4569000  57.8122860
  31.9706650  79.6736320  57.4058830  32.2399750  81.1458100  57.6340160
  30.6457020  79.8953270  50.1253450  30.9205860  80.8032150  49.9972670
  30.4567760  79.8315800  51.0615440  27.0432630  72.9198120  51.4207080
  27.4617510  72.7329100  50.5803740  26.7368690  72.0677170  51.7310010
  30.5422360  77.8322260  55.1182880  30.1665960  77.0650190  54.6864170
  29.8125480  78.2144960  55.6057810  13.3080270  75.3355760  53.1413920
  12.4044350  75.5985960  52.9665580  13.7920890  75.6066930  52.3613880
  29.8173320  76.0579750  58.4190120  30.3410800  75.5642400  57.7880290
  30.4032740  76.1930110  59.1637690  15.8507480  74.3921300  51.0508300
  16.5599180  73.9704520  50.5655580  15.1347420  74.4596530  50.4191650
  15.4981640  70.4460630  50.0910950  16.2209770  70.9869570  50.4092170
  15.7706160  70.1724050  49.2152490  29.3073290  75.3153100  54.3582530
  29.8032410  75.0823970  55.1431410  29.1089360  74.4764940  53.9420170
  30.7360450  73.9514050  56.8920210  30.6259730  73.7970090  57.8302480
  31.4968040  73.4234990  56.6495620  31.6989210  72.5532630  52.7583060
  30.9040710  72.4877750  53.2875970  31.9032490  73.4883270  52.7468410
  28.6407630  86.5924180  56.7521450  29.2366700  86.2708750  56.0755870
  28.8985780  86.1196000  57.5434720  19.6215560  85.5507720  59.7567310
  20.1380580  84.9395080  59.2315570  20.2712940  86.0536500  60.2478320
  28.1309140  70.8829510  59.2081890  28.5717230  70.8274610  58.3603490
  27.8616730  71.7987520  59.2792070  29.9947710  70.5144750  57.2190710
  29.9336110  69.5705970  57.0721730  30.7739740  70.6224840  57.7644170
  14.3000460  86.6537110  56.1814660  14.1322500  86.0207790  56.8796550
  13.4334970  86.8596510  55.8308850  14.9228480  70.4853890  53.6846520
  15.6807840  70.5982770  53.1110550  14.4605650  71.3223090  53.6389950
  21.4642290  72.5993160  56.6748830  20.6516800  72.2250050  56.3344710
  21.9683930  71.8438240  56.9770020  25.9667270  69.2635610  57.9131900
  26.5696640  69.8355820  58.3880420  25.2260260  69.8275050  57.6905800
  29.1101870  69.6657170  53.1872180  29.3052500  70.5640620  53.4539610
  28.3231740  69.4344250  53.6805130  15.9063160  85.3470340  53.6264800
  15.3810780  85.7278370  52.9226760  15.8307740  85.9721110  54.3474510
  17.2953630  71.0117940  52.2248490  17.8246390  70.2247740  52.0956440
  17.9281950  71.6909130  52.4584020  19.4891470  70.7493080  55.2793880
  18.8594210  70.0480390  55.4464010  18.9496610  71.5097210  55.0627040
  30.6628480  86.9057880  54.9478740  30.8380670  86.2195620  54.3039660
  29.9650050  87.4304930  54.5555410  18.5056130  87.2952720  52.5014050
  19.2374950  87.0112000  51.9537940  18.7649800  87.0566000  53.3913430
  17.6670920  83.4117450  52.5060380  17.0379800  83.8802550  53.0546210
  17.7818750  82.5666670  52.9406570  25.1220640  77.4623110  38.6561580
  25.0414690  76.5477720  38.3853290  24.7085060  77.9590180  37.9501290
  23.2538680  79.2402130  40.5370850  22.4780780  78.7602570  40.8269420
  23.9051610  78.5607780  40.3627010  17.2704510  79.5521940  41.4146610
  16.4389390  79.2970650  41.8143120  17.8785490  79.6232710  42.1504530
  27.2746110  83.6462320  39.3169980  26.8127640  82.8749560  39.6457150
  28.0871660  83.6728390  39.8222430  17.2505770  83.5862030  41.6104630
  17.5533810  82.6959770  41.4314850  17.9949360  84.1432250  41.3826880
  15.6796460  74.5123830  35.1989000  14.7913160  74.8539800  35.0968880
  15.9637650  74.3124150  34.3069830  13.6429470  77.1129480  41.0828700
  14.2145580  76.3451680  41.0832340  13.6431010  77.4118240  40.1735310
  23.5009420  85.9320330  38.9373970  22.8820860  86.3877830  38.3668410
  24.3561200  86.0871790  38.5363670  22.6947670  81.9159320  40.5441010
  22.6255950  80.9749260  40.3830140  23.4567530  82.0060730  41.1163580
  14.8854340  72.5213840  42.8697630  14.7057180  71.6239590  43.1500390
  14.4834420  73.0685710  43.5444580  23.7252840  74.7229700  40.7709940
  24.1017660  73.8501580  40.6583610  23.6272350  75.0588400  39.8800380
  17.8557850  73.0955330  36.2327380  17.9624600  73.9959060  36.5396140
  16.9450210  73.0473300  35.9422030  15.5041010  75.0174340  41.4779970
  16.1851120  75.2812710  42.0967370  15.1889060  74.1775210  41.8117980
  19.6965580  76.0641700  40.5652560  20.2043800  76.5622670  41.2057580
  20.2278820  75.2876900  40.3891920  17.9801680  70.7040260  44.8315980
  17.9820120  71.2212650  44.0261880  17.1505990  70.2270440  44.8085910
  24.3672770  80.8159570  36.3305880  23.7490040  81.2809020  35.7668600
  24.8796020  81.5087050  36.7475390  19.2304530  80.3435440  43.0089480
  18.8973910  80.9704360  43.6510550  19.4071210  80.8697320  42.2291150
  27.7438440  74.1580520  40.4765820  27.0394010  74.4465410  41.0568930
  28.1050600  74.9680630  40.1165380  17.6617010  72.4150220  42.8386430
  18.0033820  73.2592270  42.5440300  16.7232820  72.5633960  42.9551770
  18.4423630  82.3116240  44.8238660  19.0597630  82.9867320  44.5423110
  17.5816750  82.7204220  44.7326160  13.7355970  81.5016100  33.7045510
  13.3583950  81.9903200  32.9730410  13.9929040  82.1741380  34.3352040
  29.3601220  83.7755650  42.7393300  28.6764740  84.4454760  42.7309970
  29.8995510  83.9736300  41.9738160  30.8125360  73.6035310  40.8675030
  29.8650270  73.6374290  40.9990460  31.1375350  74.4174260  41.2524390
  26.8959960  85.6199780  41.4538480  26.9087120  85.2162070  40.5860740
  26.3435180  86.3947070  41.3499910  28.1905380  82.3416000  36.5428650
  28.0801710  81.3990330  36.6678070  28.1873630  82.7031640  37.4291410
  26.2945400  80.5229620  42.7821090  26.7114190  80.3089730  41.9474550
  27.0185220  80.7802410  43.3529710  23.7325660  77.9681320  35.8991140
  22.8054940  77.9018700  36.1279610  23.8850480  78.9061450  35.7846380
  30.2407500  78.9216840  42.8737330  29.4126130  78.9909930  42.3987460
  30.8357980  79.5071150  42.4053160  27.7622950  79.5301620  36.4026390
  27.1435370  79.1921170  35.7552690  27.7447400  78.8861380  37.1105580
  19.3382300  78.4946060  38.6810870  18.9339300  77.7823310  38.1856770
  19.4245420  78.1499300  39.5698910  19.8064000  82.1813620  40.8450080
  19.5092290  81.5759090  40.1657860  20.7563820  82.2190930  40.7339440
  18.0510920  75.2689270  42.4609910  18.6025510  75.3784610  41.6863160
  18.5654430  75.6426870  43.1765140  27.8949610  85.7545490  44.5073180
  27.4180170  86.5617680  44.3145790  27.2111400  85.1023820  44.6599390
  18.8982430  81.9195310  47.4957880  18.0010960  82.1435280  47.7431280
  18.9235300  82.0430250  46.5469280  25.9387650  78.7688430  33.4099140
  26.3780930  77.9310860  33.2636960  26.6516070  79.4017830  33.4963280
  17.7253650  78.7908630  46.0715250  17.5861420  79.6631430  46.4402650
  16.8435010  78.4481440  45.9263190  24.0483030  83.7084500  37.3780380
  24.4878940  84.4508830  36.9635770  23.9869920  83.9511070  38.3019340
  19.5234000  84.7330330  48.2800400  19.4949430  85.1373280  47.4128830
  19.3598970  83.8040690  48.1172000  16.0386930  77.3891040  36.1817520
  15.9184530  78.1153130  35.5698790  15.7287820  76.6193950  35.7045430
  31.4748820  85.5157430  49.5764570  31.9508540  85.9940320  50.2553650
  32.0955980  85.4474920  48.8510070  13.6772300  80.5606180  41.9886160
  13.7552720  80.6954950  41.0441880  14.2913980  79.8522070  42.1814280
  14.9219930  82.2606370  38.3992340  14.5148010  82.4020960  37.5445940
  15.8132940  81.9766530  38.1963550  30.8782070  82.7070280  46.7364580
  31.0045130  82.4682160  45.8181760  30.9203450  81.8754820  47.2086660
  24.7398810  86.4098280  45.3059390  25.2543480  86.3206290  46.1081820
  23.8967890  86.7557980  45.5987300  26.7153210  86.6953620  34.7343390
  26.5554350  86.4056560  35.6325220  26.5499920  85.9193750  34.1988620
  19.1941590  86.4752150  36.5115010  19.0184070  85.5587690  36.2982810
  18.3397330  86.8339440  36.7512810  26.4179340  84.2041180  33.2941390
  25.7244500  84.2018470  32.6343670  27.1602200  83.7800500  32.8635560
  25.9829270  85.8303890  37.3689880  26.4386220  85.0493270  37.6828500
  26.3221790  86.5410710  37.9131060  13.7331820  81.6020350  44.5280620
  13.8962860  81.1325710  43.7099990  14.1984270  81.0943910  45.1929460
  20.5426490  71.2773440  41.4230790  20.8398820  72.1836270  41.3422810
  21.0912050  70.7892220  40.8090360  18.2964810  75.8559680  37.2922440
  18.0705730  75.6396850  38.1969060  17.5157340  76.2888140  36.9468410
  25.5262570  75.8623050  35.8913090  24.9271460  76.5858850  35.7076710
  26.0742180  75.7999830  35.1089540  20.7364020  76.7545260  47.9582710
  20.6407620  75.8139990  47.8083110  21.5796000  76.9760330  47.5630780
  24.1327440  74.4986590  37.9216370  24.5257010  74.8158790  37.1085060
  24.4944290  73.6198470  38.0360890  15.8674560  73.1658930  46.1116490
  15.4737950  74.0134140  46.3189270  15.1792960  72.5285300  46.3025130
  13.1691610  71.0887390  40.1446570  12.8804660  71.6590250  40.8571550
  13.9137370  70.6091840  40.5077800  13.3561840  75.0307510  31.3549290
  13.2736510  75.9738270  31.4964280  13.0044900  74.8882420  30.4761640
  24.7182580  77.0892340  42.0167150  23.9863700  77.5979150  42.3657250
  24.3206920  76.2722320  41.7155930  21.1559970  73.7646540  40.4219640
  21.1596030  73.3236490  39.5724180  22.0511090  74.0863870  40.5291460
  17.0062350  73.6473030  39.3813850  16.6662400  74.1248260  40.1380900
  16.2439670  73.1938150  39.0214950  25.1808490  72.5426020  41.4290090
  25.1981230  72.9934670  42.2731940  24.9324070  71.6431660  41.6423530
  20.2301620  77.0759760  32.8109700  19.6618520  76.6278010  32.1845610
  20.9390620  77.4352540  32.2774850  15.3070800  80.9771780  46.6876430
  14.9225590  80.3365450  47.2859390  15.6182990  81.6807900  47.2571160
  21.4567940  77.8248320  42.1685050  21.8238070  77.3506890  42.9146390
  21.2673000  78.6989890  42.5093390  14.3208430  72.5692010  38.2978520
  14.0355350  72.2047680  39.1357140  14.2587290  71.8372470  37.6841660
  19.2467310  76.8656960  44.4869260  18.9424380  77.7448940  44.7119620
  20.2013770  76.9256750  44.5226700  17.7749100  81.0717950  35.0836110
  17.0011360  80.5315570  34.9234830  18.5043730  80.5524560  34.7453870
  28.5337080  80.0683310  40.8762500  29.2536200  80.5638600  40.4858610
  28.3318900  79.3901200  40.2316370  26.7095410  75.8340920  33.3154050
  27.5975030  76.1458150  33.1405390  26.6800500  74.9613170  32.9234630
  17.8186500  80.7398330  38.7214920  18.3365170  79.9366590  38.6671810
  17.3670520  80.6777470  39.5631750  22.7056000  82.0064610  33.9942220
  23.0471700  82.7506840  33.4985540  21.8768710  82.3195730  34.3567050
  15.3031040  77.7059700  45.6340620  14.9445980  78.3713550  46.2213960
  15.0085600  76.8743250  46.0053240  18.5044160  78.1643940  48.5180170
  18.2044300  78.3101120  47.6207990  19.2755400  77.6049230  48.4253560
  23.8472610  82.9612940  46.5135300  23.8617150  82.0293900  46.2954210
  23.1397710  83.0472700  47.1525070  28.9809680  77.1452760  32.7833910
  28.8973400  77.5766980  31.9330350  29.7003870  77.6051110  33.2160730
  30.0583820  79.6020280  45.8603880  29.3332010  80.1949060  45.6633270
  30.5859280  79.5943820  45.0617250  30.0096930  83.9995020  35.5116040
  29.3673090  83.3450640  35.7859760  29.6227590  84.4050110  34.7356710
  25.5883410  81.3280450  39.3587730  25.9407230  80.7308580  38.6989100
  24.7045740  81.0024680  39.5295980  21.6746690  82.0878140  36.7658140
  22.3617820  82.6347350  37.1465730  20.8879110  82.6318870  36.8007750
  13.8139090  77.7050960  32.2575220  14.6833940  77.9875760  32.5411140
  13.3229410  78.5186830  32.1424030  20.9773900  79.0924170  36.3783500
  21.4336680  79.9029420  36.6043690  20.6262110  78.7747310  37.2101990
  23.2806510  84.6030510  43.6075800  23.9248730  84.8089890  44.2849220
  23.6435950  83.8418910  43.1546650  24.5538590  82.6062860  42.3253250
  25.1960820  81.9056020  42.4385420  25.0787940  83.3861300  42.1450140
  28.3994310  82.8911480  32.0492390  28.1731890  82.1741920  32.6417030
  28.0090510  82.6423920  31.2114140  26.3276210  83.4057760  45.5289310
  26.6632450  83.9924450  46.2067230  25.4076550  83.2750470  45.7587100
  14.1810340  86.9178340  32.8236850  14.5407980  87.5167680  32.1694120
  14.0402680  87.4638230  33.5971880  13.8779610  71.1952940  46.3112720
  13.1638130  71.3949860  46.9165330  14.2974650  70.4192510  46.6827520
  27.9810560  80.8083420  33.7106550  27.6932260  81.2696110  34.4984430
  28.7762730  80.3481190  33.9790770  14.1652200  85.1833200  47.2979250
  14.2743320  84.2427940  47.1574640  13.5132760  85.4487950  46.6492980
  22.1564790  83.4549090  48.6977370  21.8361660  82.7358330  49.2423060
  21.4823150  84.1304160  48.7713430  20.1978960  84.3009540  33.6410520
  20.1889060  85.0339230  33.0255030  19.2777320  84.0541120  33.7337480
  15.7985600  79.5224430  34.3857280  15.1913550  80.2623330  34.3952580
  16.2734950  79.6123790  33.5595480  23.1838560  84.3637780  32.3035710
  23.2850540  84.1601770  31.3737690  22.2840300  84.1096060  32.5083490
  20.7064450  74.9218140  36.2859610  19.9980600  75.3904480  36.7273220
  20.9908930  74.2640150  36.9204800  22.3320380  76.3414840  44.2852140
  22.8305630  76.8160660  44.9503990  22.4743330  75.4178360  44.4922170
  21.8256670  86.8824100  36.9983380  22.0798170  86.8445490  36.0762750
  20.8769150  86.7557430  36.9911630  18.9099470  73.2303220  33.6610320
  19.7590000  73.6673370  33.5950510  18.5430740  73.5423480  34.4882380
  27.8309250  77.8015980  38.5741890  26.8899390  77.8166210  38.7489580
  28.1453320  77.0151940  39.0202190  17.8090890  79.4835580  32.1345850
  18.5754160  79.3716940  32.6971280  17.8865580  78.7873550  31.4822620
  16.5037650  76.9160650  32.8178740  16.5841240  75.9688160  32.9296140
  17.3957400  77.2467530  32.9239400  29.8334830  84.9724830  40.2496150
  29.9582250  85.7956000  40.7219960  30.7000390  84.7615560  39.9020300
  17.3052360  87.0656040  39.9213280  18.0414840  86.5171500  40.1921850
  17.6893280  87.9312050  39.7819270  14.1897840  83.1329610  35.7954790
  13.2637620  83.3750750  35.7860200  14.6554270  83.9603870  35.6739540
  16.3110640  86.2502110  49.1098860  17.1123370  86.5714160  49.5234260
  15.7962460  85.8897690  49.8318770  20.4154670  86.2386350  31.7438850
  21.2083280  86.5275180  31.2920640  19.8959020  85.8078520  31.0651330
  25.1475270  82.3581980  49.0574270  24.5413430  82.3813580  48.3170020
  24.8429380  81.6265020  49.5941520  26.5775640  86.0862270  47.6683680
  27.5297390  86.0020290  47.6183920  26.4303860  86.7503980  48.3417470
  29.4684840  85.4656480  33.1675590  29.1826350  85.0521620  32.3529770
  29.2704390  86.3944190  33.0476110  14.0308450  78.7375570  48.0534910
  14.5347470  78.1582850  48.6251140  13.2915870  79.0215800  48.5911280
  20.9332070  81.4589760  31.6081200  20.8282710  80.8442110  32.3342580
  20.7656290  80.9355650  30.8244210  21.0846390  80.1446560  47.5870430
  20.3192060  80.7131560  47.5025100  21.2662350  79.8522770  46.6938660
  24.1734800  80.5209790  32.2123190  23.6244900  80.9679090  32.8565930
  24.7954060  80.0159040  32.7360860  28.2269740  81.8751890  48.1445450
  28.9679210  82.2127650  47.6412910  27.4642420  82.0443950  47.5915220
  16.0631530  76.8805160  48.9484980  16.1036870  76.5819030  49.8570210
  16.9177030  77.2812770  48.7892500  19.8409920  79.4800710  34.1088490
  20.2626340  79.3140580  34.9519880  19.9660760  78.6700940  33.6143630
  18.0037340  75.4597260  46.9159470  17.4733800  74.9688210  46.2882810
  18.6725410  75.8881460  46.3817400  22.3537560  78.5038320  31.3565590
  22.8743220  77.7887340  30.9906740  23.0005960  79.1424190  31.6566100
  26.9015400  79.9266720  46.6800660  27.3156420  80.0811800  47.5291080
  25.9666400  80.0521940  46.8426440  18.4909640  72.4259630  46.9956760
  18.3966510  71.8080380  46.2707630  17.9107030  73.1525920  46.7686670
  21.2571080  70.9832870  44.0284150  20.8088380  71.0057130  43.1829700
  20.6236280  70.5851890  44.6254450  21.6630630  79.8787200  44.6496590
  22.0818740  80.7219930  44.4772830  20.7439260  80.0159240  44.4203370
  23.9994530  77.6103380  46.0334430  24.1190740  77.0144520  46.7729270
  24.8588530  77.6473070  45.6135730  18.7368820  75.5533940  31.0546650
  18.5357880  74.6901300  31.4159990  18.5660870  75.4667300  30.1168250
  19.5138050  86.1840210  45.7654320  18.9759140  86.9086270  45.4463020
  19.7672010  85.7070550  44.9751660  17.5351620  72.6534560  31.0424530
  17.8377520  72.6601990  30.1343680  18.2746210  72.3032420  31.5392190
  22.3700260  87.4191420  46.0240970  22.2958960  88.3226560  46.3313340
  21.4679100  87.1003320  45.9963040  22.9185590  86.5849930  33.6467330
  23.8136380  86.9234900  33.6686090  22.9503220  85.8629340  33.0191610
  16.5581750  81.9576980  31.8754330  16.9956620  82.5006650  32.5311910
  17.0429480  81.1323930  31.8850670  13.7727550  84.7466010  39.3274590
  14.1030560  83.8787070  39.0953230  14.2018550  84.9524530  40.1579550
  18.3689470  83.0775020  36.9876560  18.0685010  82.9539990  37.8880470
  18.2626960  82.2183610  36.5792290  14.2617760  85.6136600  42.0656220
  13.8248750  85.7937400  42.8980370  14.8295440  86.3711220  41.9237940
  29.8979940  85.1153600  46.3533530  29.2981930  85.1746160  45.6097450
  30.0273840  84.1758580  46.4830380  31.1381390  82.8571420  31.6903240
  30.3074350  82.9248070  32.1610470  31.3153220  83.7475540  31.3870100
  30.5937850  79.6018900  34.1937440  31.3556760  80.1715550  34.2997130
  30.6092220  79.0346100  34.9645750  14.0942190  78.1256830  38.4245100
  13.4391030  77.8568470  37.7804800  14.9320140  78.0161310  37.9747080
  31.5997820  80.4569000  39.0379370  31.9706650  79.6736320  38.6315340
  32.2399750  81.1458100  38.8596670  28.5831580  81.8405580  44.4509690
  27.7691420  82.2702740  44.7135480  28.9905780  82.4523990  43.8378740
  30.6457020  79.8953270  31.3509960  30.9205860  80.8032150  31.2229180
  30.4567760  79.8315800  32.2871950  30.5422360  77.8322260  36.3439390
  30.1665960  77.0650190  35.9120680  29.8125480  78.2144960  36.8314320
  15.1318120  78.5109400  42.9648440  15.4991160  78.4236800  43.8444460
  14.5628940  77.7475950  42.8655300  14.6834120  75.4218490  46.8706860
  13.7890170  75.3885250  47.2100570  15.2231670  75.6205280  47.6358110
  13.3080270  75.3355760  34.3670430  12.4044350  75.5985960  34.1922090
  13.7920890  75.6066930  33.5870390  29.8173320  76.0579750  39.6446630
  30.3410800  75.5642400  39.0136800  30.4032740  76.1930110  40.3894200
  15.8507480  74.3921300  32.2764810  16.5599180  73.9704520  31.7912090
  15.1347420  74.4596530  31.6448160  15.4981640  70.4460630  31.3167460
  16.2209770  70.9869570  31.6348680  15.7706160  70.1724050  30.4409000
  29.3073290  75.3153100  35.5839040  29.8032410  75.0823970  36.3687920
  29.1089360  74.4764940  35.1676680  30.7360450  73.9514050  38.1176720
  30.6259730  73.7970090  39.0558990  31.4968040  73.4234990  37.8752130
  31.6989210  72.5532630  33.9839570  30.9040710  72.4877750  34.5132480
  31.9032490  73.4883270  33.9724920  28.6407630  86.5924180  37.9777960
  29.2366700  86.2708750  37.3012380  28.8985780  86.1196000  38.7691230
  14.9405830  69.8522490  43.9615400  14.5920650  70.3086310  44.7273580
  14.6093530  68.9579620  44.0437830  16.5470200  83.0242090  48.1268590
  16.5039830  82.6535000  49.0083050  16.6781210  83.9619660  48.2670410
  20.2476230  84.5801680  43.7278310  20.0067590  84.8476240  42.8408830
  21.1878870  84.7507410  43.7829170  31.5080390  86.5996060  44.5288950
  31.0138670  86.9964930  43.8116080  30.8993680  85.9745270  44.9226230
  15.6126470  69.3798690  47.2366170  16.1609460  69.1986740  46.4732280
  15.6781780  68.5892800  47.7722480  16.3858230  85.9704340  45.2466370
  15.7918550  85.8389040  45.9856410  16.3782070  85.1342480  44.7808470
  29.1919840  87.2419480  41.8075690  28.7322810  87.9935290  41.4333710
  28.5632300  86.5225950  41.7490490  16.0170460  83.3362720  44.1974410
  15.2904520  82.7168010  44.1300360  16.0779610  83.7303330  43.3272490
  19.6215560  85.5507720  40.9823820  20.1380580  84.9395080  40.4572080
  20.2712940  86.0536500  41.4734830  22.3611060  86.4416210  41.8092800
  22.6488870  86.1870510  40.9325810  22.8734280  85.8893570  42.3998370
  23.5788070  70.1806410  42.3889310  22.7959860  70.6551910  42.6686070
  23.2851000  69.2761240  42.2802490  14.3000460  86.6537110  37.4071170
  14.1322500  86.0207790  38.1053060  13.4334970  86.8596510  37.0565360
  14.9228480  70.4853890  34.9103030  15.6807840  70.5982770  34.3367060
  14.4605650  71.3223090  34.8646460  15.9063160  85.3470340  34.8521310
  15.3810780  85.7278370  34.1483270  15.8307740  85.9721110  35.5731020
  17.2953630  71.0117940  33.4505000  17.8246390  70.2247740  33.3212950
  17.9281950  71.6909130  33.6840530  22.4283420  87.3632310  49.1761000
  23.3550730  87.1276580  49.2196960  22.4133850  88.1904310  48.6947030
  30.6628480  86.9057880  36.1735250  30.8380670  86.2195620  35.5296170
  29.9650050  87.4304930  35.7811920  18.5056130  87.2952720  33.7270560
  19.2374950  87.0112000  33.1794450  18.7649800  87.0566000  34.6169940
  17.6670920  83.4117450  33.7316890  17.0379800  83.8802550  34.2802720
  17.7818750  82.5666670  34.1663080  28.9960980  86.5902170  49.0002040
  29.7886300  86.0951400  48.7928000  29.2894130  87.2692310  49.6077650
  25.1220640  77.4623110  19.8818090  25.0414690  76.5477720  19.6109800
  24.7085060  77.9590180  19.1757800  23.2538680  79.2402130  21.7627360
  22.4780780  78.7602570  22.0525930  23.9051610  78.5607780  21.5883520
  17.2704510  79.5521940  22.6403120  16.4389390  79.2970650  23.0399630
  17.8785490  79.6232710  23.3761040  27.2746110  83.6462320  20.5426490
  26.8127640  82.8749560  20.8713660  28.0871660  83.6728390  21.0478940
  17.2505770  83.5862030  22.8361140  17.5533810  82.6959770  22.6571360
  17.9949360  84.1432250  22.6083390  15.6796460  74.5123830  16.4245510
  14.7913160  74.8539800  16.3225390  15.9637650  74.3124150  15.5326340
  13.6429470  77.1129480  22.3085210  14.2145580  76.3451680  22.3088850
  13.6431010  77.4118240  21.3991820  23.5009420  85.9320330  20.1630480
  22.8820860  86.3877830  19.5924920  24.3561200  86.0871790  19.7620180
  22.6947670  81.9159320  21.7697520  22.6255950  80.9749260  21.6086650
  23.4567530  82.0060730  22.3420090  14.8854340  72.5213840  24.0954140
  14.7057180  71.6239590  24.3756900  14.4834420  73.0685710  24.7701090
  23.7252840  74.7229700  21.9966450  24.1017660  73.8501580  21.8840120
  23.6272350  75.0588400  21.1056890  17.8557850  73.0955330  17.4583890
  17.9624600  73.9959060  17.7652650  16.9450210  73.0473300  17.1678540
  27.5076960  72.2180140  18.9294790  28.3286580  71.7276710  18.9720270
  27.5411040  72.8077800  19.6826630  15.5041010  75.0174340  22.7036480
  16.1851120  75.2812710  23.3223880  15.1889060  74.1775210  23.0374490
  19.6965580  76.0641700  21.7909070  20.2043800  76.5622670  22.4314090
  20.2278820  75.2876900  21.6148430  31.7976510  74.2346890  25.4938420
  31.0928680  74.6228600  24.9753530  32.0634430  74.9297180  26.0959350
  17.9801680  70.7040260  26.0572490  17.9820120  71.2212650  25.2518390
  17.1505990  70.2270440  26.0342420  24.3672770  80.8159570  17.5562390
  23.7490040  81.2809020  16.9925110  24.8796020  81.5087050  17.9731900
  19.2304530  80.3435440  24.2345990  18.8973910  80.9704360  24.8767060
  19.4071210  80.8697320  23.4547660  27.7438440  74.1580520  21.7022330
  27.0394010  74.4465410  22.2825440  28.1050600  74.9680630  21.3421890
  17.6617010  72.4150220  24.0642940  18.0033820  73.2592270  23.7696810
  16.7232820  72.5633960  24.1808280  18.4423630  82.3116240  26.0495170
  19.0597630  82.9867320  25.7679620  17.5816750  82.7204220  25.9582670
  13.7355970  81.5016100  14.9302020  13.3583950  81.9903200  14.1986920
  13.9929040  82.1741380  15.5608550  29.3601220  83.7755650  23.9649810
  28.6764740  84.4454760  23.9566480  29.8995510  83.9736300  23.1994670
  30.8125360  73.6035310  22.0931540  29.8650270  73.6374290  22.2246970
  31.1375350  74.4174260  22.4780900  21.3444900  69.9032490  20.3887530
  21.6519880  69.3479380  19.6723030  20.4145600  70.0376950  20.2060520
  26.8959960  85.6199780  22.6794990  26.9087120  85.2162070  21.8117250
  26.3435180  86.3947070  22.5756420  28.1905380  82.3416000  17.7685160
  28.0801710  81.3990330  17.8934580  28.1873630  82.7031640  18.6547920
  26.2945400  80.5229620  24.0077600  26.7114190  80.3089730  23.1731060
  27.0185220  80.7802410  24.5786220  23.7325660  77.9681320  17.1247650
  22.8054940  77.9018700  17.3536120  23.8850480  78.9061450  17.0102890
  23.7194740  74.2398320  14.1214810  22.7798410  74.4012280  14.2067270
  24.0378000  74.9584000  13.5750800  30.2407500  78.9216840  24.0993840
  29.4126130  78.9909930  23.6243970  30.8357980  79.5071150  23.6309670
  27.7622950  79.5301620  17.6282900  27.1435370  79.1921170  16.9809200
  27.7447400  78.8861380  18.3362090  27.2049510  75.7086160  25.0448710
  26.7920690  76.5339870  25.2988700  26.4725460  75.1231200  24.8525070
  19.3382300  78.4946060  19.9067380  18.9339300  77.7823310  19.4113280
  19.4245420  78.1499300  20.7955420  19.8064000  82.1813620  22.0706590
  19.5092290  81.5759090  21.3914370  20.7563820  82.2190930  21.9595950
  18.0510920  75.2689270  23.6866420  18.6025510  75.3784610  22.9119670
  18.5654430  75.6426870  24.4021650  27.8949610  85.7545490  25.7329690
  27.4180170  86.5617680  25.5402300  27.2111400  85.1023820  25.8855900
  18.8982430  81.9195310  28.7214390  18.0010960  82.1435280  28.9687790
  18.9235300  82.0430250  27.7725790  25.9387650  78.7688430  14.6355650
  26.3780930  77.9310860  14.4893470  26.6516070  79.4017830  14.7219790
  17.7253650  78.7908630  27.2971760  17.5861420  79.6631430  27.6659160
  16.8435010  78.4481440  27.1519700  24.0483030  83.7084500  18.6036890
  24.4878940  84.4508830  18.1892280  23.9869920  83.9511070  19.5275850
  19.5234000  84.7330330  29.5056910  19.4949430  85.1373280  28.6385340
  19.3598970  83.8040690  29.3428510  29.5204790  70.0231240  12.9496690
  29.2077450  70.1158070  13.8495760  30.2817260  70.6012270  12.8994120
  16.0386930  77.3891040  17.4074030  15.9184530  78.1153130  16.7955300
  15.7287820  76.6193950  16.9301940  31.4748820  85.5157430  30.8021080
  31.9508540  85.9940320  31.4810160  32.0955980  85.4474920  30.0766580
  13.6772300  80.5606180  23.2142670  13.7552720  80.6954950  22.2698390
  14.2913980  79.8522070  23.4070790  14.9219930  82.2606370  19.6248850
  14.5148010  82.4020960  18.7702450  15.8132940  81.9766530  19.4220060
  30.8782070  82.7070280  27.9621090  31.0045130  82.4682160  27.0438270
  30.9203450  81.8754820  28.4343170  24.7398810  86.4098280  26.5315900
  25.2543480  86.3206290  27.3338330  23.8967890  86.7557980  26.8243810
  26.7153210  86.6953620  15.9599900  26.5554350  86.4056560  16.8581730
  26.5499920  85.9193750  15.4245130  19.1941590  86.4752150  17.7371520
  19.0184070  85.5587690  17.5239320  18.3397330  86.8339440  17.9769320
  26.4179340  84.2041180  14.5197900  25.7244500  84.2018470  13.8600180
  27.1602200  83.7800500  14.0892070  25.9829270  85.8303890  18.5946390
  26.4386220  85.0493270  18.9085010  26.3221790  86.5410710  19.1387570
  30.7306080  74.7602740  28.9270830  30.1150350  75.2682410  28.3986290
  30.4102500  73.8601070  28.8696770  13.7331820  81.6020350  25.7537130
  13.8962860  81.1325710  24.9356500  14.1984270  81.0943910  26.4185970
  18.5050590  70.7326110  20.7897700  18.0618740  71.5135650  20.4582220
  19.0635580  71.0556000  21.4968640  27.7924910  74.8203580  27.5229680
  26.9418500  74.5209330  27.8438750  27.6326700  75.0645590  26.6113500
  24.8874620  76.3205330  29.6228470  25.2128030  75.4869080  29.2830700
  25.6754950  76.8433850  29.7706800  21.6209410  70.3536810  15.6703530
  20.9963590  70.3496680  16.3956840  21.5339530  69.4867770  15.2739500
  20.5426490  71.2773440  22.6487300  20.8398820  72.1836270  22.5679320
  21.0912050  70.7892220  22.0346870  18.2964810  75.8559680  18.5178950
  18.0705730  75.6396850  19.4225570  17.5157340  76.2888140  18.1724920
  25.5262570  75.8623050  17.1169600  24.9271460  76.5858850  16.9333220
  26.0742180  75.7999830  16.3346050  20.7364020  76.7545260  29.1839220
  20.6407620  75.8139990  29.0339620  21.5796000  76.9760330  28.7887290
  24.1327440  74.4986590  19.1472880  24.5257010  74.8158790  18.3341570
  24.4944290  73.6198470  19.2617400  15.8674560  73.1658930  27.3373000
  15.4737950  74.0134140  27.5445780  15.1792960  72.5285300  27.5281640
  13.1691610  71.0887390  21.3703080  12.8804660  71.6590250  22.0828060
  13.9137370  70.6091840  21.7334310  13.3561840  75.0307510  12.5805800
  13.2736510  75.9738270  12.7220790  13.0044900  74.8882420  11.7018150
  24.7182580  77.0892340  23.2423660  23.9863700  77.5979150  23.5913760
  24.3206920  76.2722320  22.9412440  21.1559970  73.7646540  21.6476150
  21.1596030  73.3236490  20.7980690  22.0511090  74.0863870  21.7547970
  17.0062350  73.6473030  20.6070360  16.6662400  74.1248260  21.3637410
  16.2439670  73.1938150  20.2471460  21.2180120  74.7658620  14.6382910
  21.3392940  74.7245100  15.5868730  20.8328630  75.6282770  14.4829640
  25.1808490  72.5426020  22.6546600  25.1981230  72.9934670  23.4988450
  24.9324070  71.6431660  22.8680040  20.2301620  77.0759760  14.0366210
  19.6618520  76.6278010  13.4102120  20.9390620  77.4352540  13.5031360
  28.6079240  69.9558200  28.4932980  28.9325010  69.2247860  29.0190960
  28.6435750  69.6371840  27.5913970  15.3070800  80.9771780  27.9132940
  14.9225590  80.3365450  28.5115900  15.6182990  81.6807900  28.4827670
  21.4567940  77.8248320  23.3941560  21.8238070  77.3506890  24.1402900
  21.2673000  78.6989890  23.7349900  14.3208430  72.5692010  19.5235030
  14.0355350  72.2047680  20.3613650  14.2587290  71.8372470  18.9098170
  19.2467310  76.8656960  25.7125770  18.9424380  77.7448940  25.9376130
  20.2013770  76.9256750  25.7483210  17.7749100  81.0717950  16.3092620
  17.0011360  80.5315570  16.1491340  18.5043730  80.5524560  15.9710380
  28.5337080  80.0683310  22.1019010  29.2536200  80.5638600  21.7115120
  28.3318900  79.3901200  21.4572880  23.9947020  71.4621270  16.2448400
  23.1811630  70.9634440  16.1693710  23.8008970  72.3019520  15.8284750
  23.9155880  80.1392370  27.9888010  23.8493190  79.2188040  27.7345600
  23.2861020  80.2367810  28.7032650  26.7095410  75.8340920  14.5410560
  27.5975030  76.1458150  14.3661900  26.6800500  74.9613170  14.1491140
  17.8186500  80.7398330  19.9471430  18.3365170  79.9366590  19.8928320
  17.3670520  80.6777470  20.7888260  22.7056000  82.0064610  15.2198730
  23.0471700  82.7506840  14.7242050  21.8768710  82.3195730  15.5823560
  15.3031040  77.7059700  26.8597130  14.9445980  78.3713550  27.4470470
  15.0085600  76.8743250  27.2309750  18.5044160  78.1643940  29.7436680
  18.2044300  78.3101120  28.8464500  19.2755400  77.6049230  29.6510070
  23.8472610  82.9612940  27.7391810  23.8617150  82.0293900  27.5210720
  23.1397710  83.0472700  28.3781580  28.9809680  77.1452760  14.0090420
  28.8973400  77.5766980  13.1586860  29.7003870  77.6051110  14.4417240
  30.0583820  79.6020280  27.0860390  29.3332010  80.1949060  26.8889780
  30.5859280  79.5943820  26.2873760  30.0096930  83.9995020  16.7372550
  29.3673090  83.3450640  17.0116270  29.6227590  84.4050110  15.9613220
  25.5883410  81.3280450  20.5844240  25.9407230  80.7308580  19.9245610
  24.7045740  81.0024680  20.7552490  21.6746690  82.0878140  17.9914650
  22.3617820  82.6347350  18.3722240  20.8879110  82.6318870  18.0264260
  13.8139090  77.7050960  13.4831730  14.6833940  77.9875760  13.7667650
  13.3229410  78.5186830  13.3680540  20.9773900  79.0924170  17.6040010
  21.4336680  79.9029420  17.8300200  20.6262110  78.7747310  18.4358500
  23.2806510  84.6030510  24.8332310  23.9248730  84.8089890  25.5105730
  23.6435950  83.8418910  24.3803160  16.8785680  69.4361820  18.0762530
  16.7500310  69.4279720  19.0247450  16.0547700  69.7744910  17.7253540
  24.5538590  82.6062860  23.5509760  25.1960820  81.9056020  23.6641930
  25.0787940  83.3861300  23.3706650  28.3994310  82.8911480  13.2748900
  28.1731890  82.1741920  13.8673540  28.0090510  82.6423920  12.4370650
  26.3276210  83.4057760  26.7545820  26.6632450  83.9924450  27.4323740
  25.4076550  83.2750470  26.9843610  14.1810340  86.9178340  14.0493360
  14.5407980  87.5167680  13.3950630  14.0402680  87.4638230  14.8228390
  13.8779610  71.1952940  27.5369230  13.1638130  71.3949860  28.1421840
  14.2974650  70.4192510  27.9084030  27.9810560  80.8083420  14.9363060
  27.6932260  81.2696110  15.7240940  28.7762730  80.3481190  15.2047280
  14.1652200  85.1833200  28.5235760  14.2743320  84.2427940  28.3831150
  13.5132760  85.4487950  27.8749490  22.1564790  83.4549090  29.9233880
  21.8361660  82.7358330  30.4679570  21.4823150  84.1304160  29.9969940
  20.1978960  84.3009540  14.8667030  20.1889060  85.0339230  14.2511540
  19.2777320  84.0541120  14.9593990  15.7985600  79.5224430  15.6113790
  15.1913550  80.2623330  15.6209090  16.2734950  79.6123790  14.7851990
  25.3718390  73.6875250  25.2870680  25.7399210  72.8670460  25.6150250
  24.5116590  73.7477140  25.7026330  28.7380420  72.6432190  16.0958240
  28.1093580  72.7477860  15.3816470  28.2432340  72.8628970  16.8852120
  23.1838560  84.3637780  13.5292220  23.2850540  84.1601770  12.5994200
  22.2840300  84.1096060  13.7340000  20.7064450  74.9218140  17.5116120
  19.9980600  75.3904480  17.9529730  20.9908930  74.2640150  18.1461310
  22.3320380  76.3414840  25.5108650  22.8305630  76.8160660  26.1760500
  22.4743330  75.4178360  25.7178680  24.7379880  71.6468800  18.9511910
  24.6147660  71.6654930  18.0021420  25.6864440  71.6947740  19.0710310
  21.8256670  86.8824100  18.2239890  22.0798170  86.8445490  17.3019260
  20.8769150  86.7557430  18.2168140  18.9099470  73.2303220  14.8866830
  19.7590000  73.6673370  14.8207020  18.5430740  73.5423480  15.7138890
  29.5387240  72.5582800  26.3537040  29.0360840  73.2988200  26.6930850
  30.3543900  72.9466800  26.0373830  27.8309250  77.8015980  19.7998400
  26.8899390  77.8166210  19.9746090  28.1453320  77.0151940  20.2458700
  17.8090890  79.4835580  13.3602360  18.5754160  79.3716940  13.9227790
  17.8865580  78.7873550  12.7079130  16.5037650  76.9160650  14.0435250
  16.5841240  75.9688160  14.1552650  17.3957400  77.2467530  14.1495910
  29.8334830  84.9724830  21.4752660  29.9582250  85.7956000  21.9476470
  30.7000390  84.7615560  21.1276810  17.3052360  87.0656040  21.1469790
  18.0414840  86.5171500  21.4178360  17.6893280  87.9312050  21.0075780
  14.1897840  83.1329610  17.0211300  13.2637620  83.3750750  17.0116710
  14.6554270  83.9603870  16.8996050  16.3110640  86.2502110  30.3355370
  17.1123370  86.5714160  30.7490770  15.7962460  85.8897690  31.0575280
  20.4154670  86.2386350  12.9695360  21.2083280  86.5275180  12.5177150
  19.8959020  85.8078520  12.2907840  25.1475270  82.3581980  30.2830780
  24.5413430  82.3813580  29.5426530  24.8429380  81.6265020  30.8198030
  26.5775640  86.0862270  28.8940190  27.5297390  86.0020290  28.8440430
  26.4303860  86.7503980  29.5673980  29.4684840  85.4656480  14.3932100
  29.1826350  85.0521620  13.5786280  29.2704390  86.3944190  14.2732620
  14.0308450  78.7375570  29.2791420  14.5347470  78.1582850  29.8507650
  13.2915870  79.0215800  29.8167790  20.9332070  81.4589760  12.8337710
  20.8282710  80.8442110  13.5599090  20.7656290  80.9355650  12.0500720
  21.0846390  80.1446560  28.8126940  20.3192060  80.7131560  28.7281610
  21.2662350  79.8522770  27.9195170  24.1734800  80.5209790  13.4379700
  23.6244900  80.9679090  14.0822440  24.7954060  80.0159040  13.9617370
  28.2269740  81.8751890  29.3701960  28.9679210  82.2127650  28.8669420
  27.4642420  82.0443950  28.8171730  16.0631530  76.8805160  30.1741490
  16.1036870  76.5819030  31.0826720  16.9177030  77.2812770  30.0149010
  19.8409920  79.4800710  15.3345000  20.2626340  79.3140580  16.1776390
  19.9660760  78.6700940  14.8400140  18.0037340  75.4597260  28.1415980
  17.4733800  74.9688210  27.5139320  18.6725410  75.8881460  27.6073910
  22.3537560  78.5038320  12.5822100  22.8743220  77.7887340  12.2163250
  23.0005960  79.1424190  12.8822610  26.9015400  79.9266720  27.9057170
  27.3156420  80.0811800  28.7547590  25.9666400  80.0521940  28.0682950
  27.3737570  77.2662880  29.9096320  27.9558340  76.5115200  29.8216800
  27.5499340  77.7970320  29.1327800  18.4909640  72.4259630  28.2213270
  18.3966510  71.8080380  27.4964140  17.9107030  73.1525920  27.9943180
  21.2571080  70.9832870  25.2540660  20.8088380  71.0057130  24.4086210
  20.6236280  70.5851890  25.8510960  21.6630630  79.8787200  25.8753100
  22.0818740  80.7219930  25.7029340  20.7439260  80.0159240  25.6459880
  23.9994530  77.6103380  27.2590940  24.1190740  77.0144520  27.9985780
  24.8588530  77.6473070  26.8392240  26.3382430  78.1640570  25.8353450
  25.8117650  78.6883190  25.2318590  26.6813770  78.7967960  26.4663180
  18.7368820  75.5533940  12.2803160  18.5357880  74.6901300  12.6416500
  18.5660870  75.4667300  11.3424760  19.5138050  86.1840210  26.9910830
  18.9759140  86.9086270  26.6719530  19.7672010  85.7070550  26.2008170
  26.2157130  70.3642170  14.8090040  26.4959420  69.5210070  15.1649460
  25.4422860  70.5965280  15.3228790  17.5351620  72.6534560  12.2681040
  17.8377520  72.6601990  11.3600190  18.2746210  72.3032420  12.7648700
  22.3700260  87.4191420  27.2497480  22.2958960  88.3226560  27.5569850
  21.4679100  87.1003320  27.2219550  20.7536550  71.5969180  13.2537240
  20.4058550  70.9193170  12.6739690  20.9549320  71.1358690  14.0680630
  22.9185590  86.5849930  14.8723840  23.8136380  86.9234900  14.8942600
  22.9503220  85.8629340  14.2448120  16.5581750  81.9576980  13.1010840
  16.9956620  82.5006650  13.7568420  17.0429480  81.1323930  13.1107180
  13.7727550  84.7466010  20.5531100  14.1030560  83.8787070  20.3209740
  14.2018550  84.9524530  21.3836060  18.3689470  83.0775020  18.2133070
  18.0685010  82.9539990  19.1136980  18.2626960  82.2183610  17.8048800
  14.2617760  85.6136600  23.2912730  13.8248750  85.7937400  24.1236880
  14.8295440  86.3711220  23.1494450  29.8979940  85.1153600  27.5790040
  29.2981930  85.1746160  26.8353960  30.0273840  84.1758580  27.7086890
  31.1381390  82.8571420  12.9159750  30.3074350  82.9248070  13.3866980
  31.3153220  83.7475540  12.6126610  30.5937850  79.6018900  15.4193950
  31.3556760  80.1715550  15.5253640  30.6092220  79.0346100  16.1902260
  14.0942190  78.1256830  19.6501610  13.4391030  77.8568470  19.0061310
  14.9320140  78.0161310  19.2003590  31.5997820  80.4569000  20.2635880
  31.9706650  79.6736320  19.8571850  32.2399750  81.1458100  20.0853180
  28.5831580  81.8405580  25.6766200  27.7691420  82.2702740  25.9391990
  28.9905780  82.4523990  25.0635250  30.6457020  79.8953270  12.5766470
  30.9205860  80.8032150  12.4485690  30.4567760  79.8315800  13.5128460
  27.0432630  72.9198120  13.8720100  27.4617510  72.7329100  13.0316760
  26.7368690  72.0677170  14.1823030  30.5422360  77.8322260  17.5695900
  30.1665960  77.0650190  17.1377190  29.8125480  78.2144960  18.0570830
  15.1318120  78.5109400  24.1904950  15.4991160  78.4236800  25.0700970
  14.5628940  77.7475950  24.0911810  29.9321980  76.9793780  27.2035420
  29.7008070  76.7506530  26.3033370  30.1926530  77.8993330  27.1580310
  14.6834120  75.4218490  28.0963370  13.7890170  75.3885250  28.4357080
  15.2231670  75.6205280  28.8614620  28.3710050  72.2050210  29.9815120
  29.2480230  72.2133610  30.3649120  28.3830890  71.4681050  29.3707470
  13.3080270  75.3355760  15.5926940  12.4044350  75.5985960  15.4178600
  13.7920890  75.6066930  14.8126900  29.8173320  76.0579750  20.8703140
  30.3410800  75.5642400  20.2393310  30.4032740  76.1930110  21.6150710
  29.9963040  76.1419620  24.3922690  29.0465750  76.1083160  24.5067680
  30.1776050  77.0519730  24.1572460  15.8507480  74.3921300  13.5021320
  16.5599180  73.9704520  13.0168600  15.1347420  74.4596530  12.8704670
  15.4981640  70.4460630  12.5423970  16.2209770  70.9869570  12.8605190
  15.7706160  70.1724050  11.6665510  29.3073290  75.3153100  16.8095550
  29.8032410  75.0823970  17.5944430  29.1089360  74.4764940  16.3933190
  15.1873830  69.6966820  22.4446590  15.8350020  69.1464200  22.0041750
  15.6075670  69.9509970  23.2662400  30.7360450  73.9514050  19.3433230
  30.6259730  73.7970090  20.2815500  31.4968040  73.4234990  19.1008640
  31.6250720  71.7821970  12.5839370  32.5500030  71.6503150  12.3757660
  31.6026510  71.8614790  13.5375820  31.6989210  72.5532630  15.2096080
  30.9040710  72.4877750  15.7388990  31.9032490  73.4883270  15.1981430
  28.6407630  86.5924180  19.2034470  29.2366700  86.2708750  18.5268890
  28.8985780  86.1196000  19.9947740  14.9405830  69.8522490  25.1871910
  14.5920650  70.3086310  25.9530090  14.6093530  68.9579620  25.2694340
  16.5470200  83.0242090  29.3525100  16.5039830  82.6535000  30.2339560
  16.6781210  83.9619660  29.4926920  20.2476230  84.5801680  24.9534820
  20.0067590  84.8476240  24.0665340  21.1878870  84.7507410  25.0085680
  31.5080390  86.5996060  25.7545460  31.0138670  86.9964930  25.0372590
  30.8993680  85.9745270  26.1482740  15.6126470  69.3798690  28.4622680
  16.1609460  69.1986740  27.6988790  15.6781780  68.5892800  28.9978990
  16.3858230  85.9704340  26.4722880  15.7918550  85.8389040  27.2112920
  16.3782070  85.1342480  26.0064980  25.8313250  69.2636570  24.6752910
  24.9573090  69.5971680  24.4725840  25.7224000  68.7909750  25.5004780
  29.1919840  87.2419480  23.0332200  28.7322810  87.9935290  22.6590220
  28.5632300  86.5225950  22.9747000  16.0170460  83.3362720  25.4230920
  15.2904520  82.7168010  25.3556870  16.0779610  83.7303330  24.5529000
  19.6215560  85.5507720  22.2080330  20.1380580  84.9395080  21.6828590
  20.2712940  86.0536500  22.6991340  22.3611060  86.4416210  23.0349310
  22.6488870  86.1870510  22.1582320  22.8734280  85.8893570  23.6254880
  23.5788070  70.1806410  23.6145820  22.7959860  70.6551910  23.8942580
  23.2851000  69.2761240  23.5059000  28.1309140  70.8829510  21.6594910
  28.5717230  70.8274610  20.8116510  27.8616730  71.7987520  21.7305090
  29.9947710  70.5144750  19.6703730  29.9336110  69.5705970  19.5234750
  30.7739740  70.6224840  20.2157190  14.3000460  86.6537110  18.6327680
  14.1322500  86.0207790  19.3309570  13.4334970  86.8596510  18.2821870
  14.9228480  70.4853890  16.1359540  15.6807840  70.5982770  15.5623570
  14.4605650  71.3223090  16.0902970  21.4642290  72.5993160  19.1261850
  20.6516800  72.2250050  18.7857730  21.9683930  71.8438240  19.4283040
  25.9667270  69.2635610  20.3644920  26.5696640  69.8355820  20.8393440
  25.2260260  69.8275050  20.1418820  29.1101870  69.6657170  15.6385200
  29.3052500  70.5640620  15.9052630  28.3231740  69.4344250  16.1318150
  15.9063160  85.3470340  16.0777820  15.3810780  85.7278370  15.3739780
  15.8307740  85.9721110  16.7987530  17.2953630  71.0117940  14.6761510
  17.8246390  70.2247740  14.5469460  17.9281950  71.6909130  14.9097040
  19.4891470  70.7493080  17.7306900  18.8594210  70.0480390  17.8977030
  18.9496610  71.5097210  17.5140060  22.4283420  87.3632310  30.4017510
  23.3550730  87.1276580  30.4453470  22.4133850  88.1904310  29.9203540
  30.6628480  86.9057880  17.3991760  30.8380670  86.2195620  16.7552680
  29.9650050  87.4304930  17.0068430  18.5056130  87.2952720  14.9527070
  19.2374950  87.0112000  14.4050960  18.7649800  87.0566000  15.8426450
  17.6670920  83.4117450  14.9573400  17.0379800  83.8802550  15.5059230
  17.7818750  82.5666670  15.3919590  28.9960980  86.5902170  30.2258550
  29.7886300  86.0951400  30.0184510  29.2894130  87.2692310  30.8334160
  23.2538680  79.2402130   2.9883870  22.4780780  78.7602570   3.2782440
  23.9051610  78.5607780   2.8140030  17.2704510  79.5521940   3.8659630
  16.4389390  79.2970650   4.2656140  17.8785490  79.6232710   4.6017550
  27.2746110  83.6462320   1.7683000  26.8127640  82.8749560   2.0970170
  28.0871660  83.6728390   2.2735450  17.2505770  83.5862030   4.0617650
  17.5533810  82.6959770   3.8827870  17.9949360  84.1432250   3.8339900
  13.6429470  77.1129480   3.5341720  14.2145580  76.3451680   3.5345360
  13.6431010  77.4118240   2.6248330  22.6947670  81.9159320   2.9954030
  22.6255950  80.9749260   2.8343160  23.4567530  82.0060730   3.5676600
  14.8854340  72.5213840   5.3210650  14.7057180  71.6239590   5.6013410
  14.4834420  73.0685710   5.9957600  23.7252840  74.7229700   3.2222960
  24.1017660  73.8501580   3.1096630  23.6272350  75.0588400   2.3313400
  15.5041010  75.0174340   3.9292990  16.1851120  75.2812710   4.5480390
  15.1889060  74.1775210   4.2631000  19.6965580  76.0641700   3.0165580
  20.2043800  76.5622670   3.6570600  20.2278820  75.2876900   2.8404940
  31.7976510  74.2346890   6.7194930  31.0928680  74.6228600   6.2010040
  32.0634430  74.9297180   7.3215860  17.9801680  70.7040260   7.2829000
  17.9820120  71.2212650   6.4774900  17.1505990  70.2270440   7.2598930
  19.2304530  80.3435440   5.4602500  18.8973910  80.9704360   6.1023570
  19.4071210  80.8697320   4.6804170  27.7438440  74.1580520   2.9278840
  27.0394010  74.4465410   3.5081950  28.1050600  74.9680630   2.5678400
  17.6617010  72.4150220   5.2899450  18.0033820  73.2592270   4.9953320
  16.7232820  72.5633960   5.4064790  18.4423630  82.3116240   7.2751680
  19.0597630  82.9867320   6.9936130  17.5816750  82.7204220   7.1839180
  29.3601220  83.7755650   5.1906320  28.6764740  84.4454760   5.1822990
  29.8995510  83.9736300   4.4251180  30.8125360  73.6035310   3.3188050
  29.8650270  73.6374290   3.4503480  31.1375350  74.4174260   3.7037410
  26.8959960  85.6199780   3.9051500  26.9087120  85.2162070   3.0373760
  26.3435180  86.3947070   3.8012930  30.2407500  78.9216840   5.3250350
  29.4126130  78.9909930   4.8500480  30.8357980  79.5071150   4.8566180
  27.2049510  75.7086160   6.2705220  26.7920690  76.5339870   6.5245210
  26.4725460  75.1231200   6.0781580  19.8064000  82.1813620   3.2963100
  19.5092290  81.5759090   2.6170880  20.7563820  82.2190930   3.1852460
  18.0510920  75.2689270   4.9122930  18.6025510  75.3784610   4.1376180
  18.5654430  75.6426870   5.6278160  27.8949610  85.7545490   6.9586200
  27.4180170  86.5617680   6.7658810  27.2111400  85.1023820   7.1112410
  18.8982430  81.9195310   9.9470900  18.0010960  82.1435280  10.1944300
  18.9235300  82.0430250   8.9982300  17.7253650  78.7908630   8.5228270
  17.5861420  79.6631430   8.8915670  16.8435010  78.4481440   8.3776210
  19.5234000  84.7330330  10.7313420  19.4949430  85.1373280   9.8641850
  19.3598970  83.8040690  10.5685020  31.4748820  85.5157430  12.0277590
  31.9508540  85.9940320  12.7066670  32.0955980  85.4474920  11.3023090
  13.6772300  80.5606180   4.4399180  13.7552720  80.6954950   3.4954900
  14.2913980  79.8522070   4.6327300  30.8782070  82.7070280   9.1877600
  31.0045130  82.4682160   8.2694780  30.9203450  81.8754820   9.6599680
  24.7398810  86.4098280   7.7572410  25.2543480  86.3206290   8.5594840
  23.8967890  86.7557980   8.0500320  30.7306080  74.7602740  10.1527340
  30.1150350  75.2682410   9.6242800  30.4102500  73.8601070  10.0953280
  13.7331820  81.6020350   6.9793640  13.8962860  81.1325710   6.1613010
  14.1984270  81.0943910   7.6442480  18.5050590  70.7326110   2.0154210
  18.0618740  71.5135650   1.6838730  19.0635580  71.0556000   2.7225150
  22.7920400  73.5994630   7.6189530  22.3299770  73.8077650   8.4309470
  22.3898510  72.7853980   7.3160200  27.7924910  74.8203580   8.7486190
  26.9418500  74.5209330   9.0695260  27.6326700  75.0645590   7.8370010
  24.8874620  76.3205330  10.8484980  25.2128030  75.4869080  10.5087210
  25.6754950  76.8433850  10.9963310  20.5426490  71.2773440   3.8743810
  20.8398820  72.1836270   3.7935830  21.0912050  70.7892220   3.2603380
  20.7364020  76.7545260  10.4095730  20.6407620  75.8139990  10.2596130
  21.5796000  76.9760330  10.0143800  15.8674560  73.1658930   8.5629510
  15.4737950  74.0134140   8.7702290  15.1792960  72.5285300   8.7538150
  22.4419610  73.2493900  11.6326250  21.7517930  73.0566100  12.2672340
  23.1851910  73.5328540  12.1650550  13.1691610  71.0887390   2.5959590
  12.8804660  71.6590250   3.3084570  13.9137370  70.6091840   2.9590820
  24.7182580  77.0892340   4.4680170  23.9863700  77.5979150   4.8170270
  24.3206920  76.2722320   4.1668950  21.1559970  73.7646540   2.8732660
  21.1596030  73.3236490   2.0237200  22.0511090  74.0863870   2.9804480
  17.0062350  73.6473030   1.8326870  16.6662400  74.1248260   2.5893920
  16.2439670  73.1938150   1.4727970  25.1808490  72.5426020   3.8803110
  25.1981230  72.9934670   4.7244960  24.9324070  71.6431660   4.0936550
  28.6079240  69.9558200   9.7189490  28.9325010  69.2247860  10.2447470
  28.6435750  69.6371840   8.8170480  15.3070800  80.9771780   9.1389450
  14.9225590  80.3365450   9.7372410  15.6182990  81.6807900   9.7084180
  21.4567940  77.8248320   4.6198070  21.8238070  77.3506890   5.3659410
  21.2673000  78.6989890   4.9606410  19.2467310  76.8656960   6.9382280
  18.9424380  77.7448940   7.1632640  20.2013770  76.9256750   6.9739720
  28.5337080  80.0683310   3.3275520  29.2536200  80.5638600   2.9371630
  28.3318900  79.3901200   2.6829390  23.9155880  80.1392370   9.2144520
  23.8493190  79.2188040   8.9602110  23.2861020  80.2367810   9.9289160
  15.3031040  77.7059700   8.0853640  14.9445980  78.3713550   8.6726980
  15.0085600  76.8743250   8.4566260  18.5044160  78.1643940  10.9693190
  18.2044300  78.3101120  10.0721010  19.2755400  77.6049230  10.8766580
  23.8472610  82.9612940   8.9648320  23.8617150  82.0293900   8.7467230
  23.1397710  83.0472700   9.6038090  30.0583820  79.6020280   8.3116900
  29.3332010  80.1949060   8.1146290  30.5859280  79.5943820   7.5130270
  23.2806510  84.6030510   6.0588820  23.9248730  84.8089890   6.7362240
  23.6435950  83.8418910   5.6059670  24.5538590  82.6062860   4.7766270
  25.1960820  81.9056020   4.8898440  25.0787940  83.3861300   4.5963160
  26.3276210  83.4057760   7.9802330  26.6632450  83.9924450   8.6580250
  25.4076550  83.2750470   8.2100120  13.8779610  71.1952940   8.7625740
  13.1638130  71.3949860   9.3678350  14.2974650  70.4192510   9.1340540
  14.1652200  85.1833200   9.7492270  14.2743320  84.2427940   9.6087660
  13.5132760  85.4487950   9.1006000  22.1564790  83.4549090  11.1490390
  21.8361660  82.7358330  11.6936080  21.4823150  84.1304160  11.2226450
  25.3718390  73.6875250   6.5127190  25.7399210  72.8670460   6.8406760
  24.5116590  73.7477140   6.9282840  22.3320380  76.3414840   6.7365160
  22.8305630  76.8160660   7.4017010  22.4743330  75.4178360   6.9435190
  29.5387240  72.5582800   7.5793550  29.0360840  73.2988200   7.9187360
  30.3543900  72.9466800   7.2630340  29.8334830  84.9724830   2.7009170
  29.9582250  85.7956000   3.1732980  30.7000390  84.7615560   2.3533320
  17.3052360  87.0656040   2.3726300  18.0414840  86.5171500   2.6434870
  17.6893280  87.9312050   2.2332290  16.3110640  86.2502110  11.5611880
  17.1123370  86.5714160  11.9747280  15.7962460  85.8897690  12.2831790
  25.1475270  82.3581980  11.5087290  24.5413430  82.3813580  10.7683040
  24.8429380  81.6265020  12.0454540  26.5775640  86.0862270  10.1196700
  27.5297390  86.0020290  10.0696940  26.4303860  86.7503980  10.7930490
  14.0308450  78.7375570  10.5047930  14.5347470  78.1582850  11.0764160
  13.2915870  79.0215800  11.0424300  21.0846390  80.1446560  10.0383450
  20.3192060  80.7131560   9.9538120  21.2662350  79.8522770   9.1451680
  28.2269740  81.8751890  10.5958470  28.9679210  82.2127650  10.0925930
  27.4642420  82.0443950  10.0428240  16.0631530  76.8805160  11.3998000
  16.1036870  76.5819030  12.3083230  16.9177030  77.2812770  11.2405520
  18.0037340  75.4597260   9.3672490  17.4733800  74.9688210   8.7395830
  18.6725410  75.8881460   8.8330420  26.9015400  79.9266720   9.1313680
  27.3156420  80.0811800   9.9804100  25.9666400  80.0521940   9.2939460
  27.3737570  77.2662880  11.1352830  27.9558340  76.5115200  11.0473310
  27.5499340  77.7970320  10.3584310  18.4909640  72.4259630   9.4469780
  18.3966510  71.8080380   8.7220650  17.9107030  73.1525920   9.2199690
  21.2571080  70.9832870   6.4797170  20.8088380  71.0057130   5.6342720
  20.6236280  70.5851890   7.0767470  21.6630630  79.8787200   7.1009610
  22.0818740  80.7219930   6.9285850  20.7439260  80.0159240   6.8716390
  23.9994530  77.6103380   8.4847450  24.1190740  77.0144520   9.2242290
  24.8588530  77.6473070   8.0648750  26.3382430  78.1640570   7.0609960
  25.8117650  78.6883190   6.4575100  26.6813770  78.7967960   7.6919690
  19.5138050  86.1840210   8.2167340  18.9759140  86.9086270   7.8976040
  19.7672010  85.7070550   7.4264680  20.7663300  74.1524730   9.7423270
  21.3562990  73.8440580  10.4301090  19.9483540  73.6804480   9.8983170
  25.5856730  73.7690540   9.9756290  24.8972250  73.1072080   9.9106280
  26.3062750  73.3228810  10.4204750  22.3700260  87.4191420   8.4753990
  22.2958960  88.3226560   8.7826360  21.4679100  87.1003320   8.4476060
  13.7727550  84.7466010   1.7787610  14.1030560  83.8787070   1.5466250
  14.2018550  84.9524530   2.6092570  14.2617760  85.6136600   4.5169240
  13.8248750  85.7937400   5.3493390  14.8295440  86.3711220   4.3750960
  29.8979940  85.1153600   8.8046550  29.2981930  85.1746160   8.0610470
  30.0273840  84.1758580   8.9343400  28.5831580  81.8405580   6.9022710
  27.7691420  82.2702740   7.1648500  28.9905780  82.4523990   6.2891760
  15.1318120  78.5109400   5.4161460  15.4991160  78.4236800   6.2957480
  14.5628940  77.7475950   5.3168320  29.9321980  76.9793780   8.4291930
  29.7008070  76.7506530   7.5289880  30.1926530  77.8993330   8.3836820
  14.6834120  75.4218490   9.3219880  13.7890170  75.3885250   9.6613590
  15.2231670  75.6205280  10.0871130  28.3710050  72.2050210  11.2071630
  29.2480230  72.2133610  11.5905630  28.3830890  71.4681050  10.5963980
  29.8173320  76.0579750   2.0959650  30.3410800  75.5642400   1.4649820
  30.4032740  76.1930110   2.8407220  29.9963040  76.1419620   5.6179200
  29.0465750  76.1083160   5.7324190  30.1776050  77.0519730   5.3828970
  15.1873830  69.6966820   3.6703100  15.8350020  69.1464200   3.2298260
  15.6075670  69.9509970   4.4918910  29.0826170  69.8908180   7.0272740
  29.7198390  70.5042320   7.3931930  29.2301060  69.9268840   6.0821970
  14.9405830  69.8522490   6.4128420  14.5920650  70.3086310   7.1786600
  14.6093530  68.9579620   6.4950850  16.5470200  83.0242090  10.5781610
  16.5039830  82.6535000  11.4596070  16.6781210  83.9619660  10.7183430
  20.2476230  84.5801680   6.1791330  20.0067590  84.8476240   5.2921850
  21.1878870  84.7507410   6.2342190  22.4530650  71.0434370   9.9347840
  22.3919540  71.6356200  10.6843250  23.3931030  70.9360330   9.7898100
  25.0905210  70.7004430   9.5740130  25.7045620  71.0183720   8.9121210
  25.6354770  70.2153020  10.1935990  31.5080390  86.5996060   6.9801970
  31.0138670  86.9964930   6.2629100  30.8993680  85.9745270   7.3739250
  15.6126470  69.3798690   9.6879190  16.1609460  69.1986740   8.9245300
  15.6781780  68.5892800  10.2235500  16.3858230  85.9704340   7.6979390
  15.7918550  85.8389040   8.4369430  16.3782070  85.1342480   7.2321490
  25.8313250  69.2636570   5.9009420  24.9573090  69.5971680   5.6982350
  25.7224000  68.7909750   6.7261290  26.7385230  71.4707440   7.2851140
  26.4098590  70.6559200   6.9052870  27.6867530  71.4277250   7.1616830
  29.1919840  87.2419480   4.2588710  28.7322810  87.9935290   3.8846730
  28.5632300  86.5225950   4.2003510  16.0170460  83.3362720   6.6487430
  15.2904520  82.7168010   6.5813380  16.0779610  83.7303330   5.7785510
  22.3611060  86.4416210   4.2605820  22.6488870  86.1870510   3.3838830
  22.8734280  85.8893570   4.8511390  23.5788070  70.1806410   4.8402330
  22.7959860  70.6551910   5.1199090  23.2851000  69.2761240   4.7315510
  28.1309140  70.8829510   2.8851420  28.5717230  70.8274610   2.0373020
  27.8616730  71.7987520   2.9561600  22.4283420  87.3632310  11.6274020
  23.3550730  87.1276580  11.6709980  22.4133850  88.1904310  11.1460050
  19.6147030  70.0277060  11.3915900  19.3331300  70.5310660  10.6276720
  19.9966730  69.2298810  11.0258030  26.2162490  69.4430640  11.9696370
  26.1027940  69.7625250  12.8647890  27.0332230  69.8443150  11.6733650
  28.9960980  86.5902170  11.4515060  29.7886300  86.0951400  11.2441020
  29.2894130  87.2692310  12.0590670  25.1220640  58.6879620  57.4305070
  25.0414690  57.7734230  57.1596780  24.7085060  59.1846690  56.7244780
  23.2538680  60.4658640  59.3114340  22.4780780  59.9859080  59.6012910
  23.9051610  59.7864290  59.1370500  27.2746110  64.8718830  58.0913470
  26.8127640  64.1006070  58.4200640  28.0871660  64.8984900  58.5965920
  15.6796460  55.7380340  53.9732490  14.7913160  56.0796310  53.8712370
  15.9637650  55.5380660  53.0813320  13.6429470  58.3385990  59.8572190
  14.2145580  57.5708190  59.8575830  13.6431010  58.6374750  58.9478800
  23.5009420  67.1576840  57.7117460  22.8820860  67.6134340  57.1411900
  24.3561200  67.3128300  57.3107160  22.6947670  63.1415830  59.3184500
  22.6255950  62.2005770  59.1573630  23.4567530  63.2317240  59.8907070
  23.7252840  55.9486210  59.5453430  24.1017660  55.0758090  59.4327100
  23.6272350  56.2844910  58.6543870  17.8557850  54.3211840  55.0070870
  17.9624600  55.2215570  55.3139630  16.9450210  54.2729810  54.7165520
  27.5076960  53.4436650  56.4781770  28.3286580  52.9533220  56.5207250
  27.5411040  54.0334310  57.2313610  19.6965580  57.2898210  59.3396050
  20.2043800  57.7879180  59.9801070  20.2278820  56.5133410  59.1635410
  24.3672770  62.0416080  55.1049370  23.7490040  62.5065530  54.5412090
  24.8796020  62.7343560  55.5218880  27.7438440  55.3837030  59.2509310
  27.0394010  55.6721920  59.8312420  28.1050600  56.1937140  58.8908870
  13.7355970  62.7272610  52.4789000  13.3583950  63.2159710  51.7473900
  13.9929040  63.3997890  53.1095530  30.8125360  54.8291820  59.6418520
  29.8650270  54.8630800  59.7733950  31.1375350  55.6430770  60.0267880
  21.3444900  51.1289000  57.9374510  21.6519880  50.5735890  57.2210010
  20.4145600  51.2633460  57.7547500  26.8959960  66.8456290  60.2281970
  26.9087120  66.4418580  59.3604230  26.3435180  67.6203580  60.1243400
  28.1905380  63.5672510  55.3172140  28.0801710  62.6246840  55.4421560
  28.1873630  63.9288150  56.2034900  23.7325660  59.1937830  54.6734630
  22.8054940  59.1275210  54.9023100  23.8850480  60.1317960  54.5589870
  23.7194740  55.4654830  51.6701790  22.7798410  55.6268790  51.7554250
  24.0378000  56.1840510  51.1237780  27.7622950  60.7558130  55.1769880
  27.1435370  60.4177680  54.5296180  27.7447400  60.1117890  55.8849070
  19.3382300  59.7202570  57.4554360  18.9339300  59.0079820  56.9600260
  19.4245420  59.3755810  58.3442400  19.8064000  63.4070130  59.6193570
  19.5092290  62.8015600  58.9401350  20.7563820  63.4447440  59.5082930
  25.9387650  59.9944940  52.1842630  26.3780930  59.1567370  52.0380450
  26.6516070  60.6274340  52.2706770  24.0483030  64.9341010  56.1523870
  24.4878940  65.6765340  55.7379260  23.9869920  65.1767580  57.0762830
  29.5204790  51.2487750  50.4983670  29.2077450  51.3414580  51.3982740
  30.2817260  51.8268780  50.4481100  16.0386930  58.6147550  54.9561010
  15.9184530  59.3409640  54.3442280  15.7287820  57.8450460  54.4788920
  14.9219930  63.4862880  57.1735830  14.5148010  63.6277470  56.3189430
  15.8132940  63.2023040  56.9707040  26.7153210  67.9210130  53.5086880
  26.5554350  67.6313070  54.4068710  26.5499920  67.1450260  52.9732110
  19.1941590  67.7008660  55.2858500  19.0184070  66.7844200  55.0726300
  18.3397330  68.0595950  55.5256300  26.4179340  65.4297690  52.0684880
  25.7244500  65.4274980  51.4087160  27.1602200  65.0057010  51.6379050
  25.9829270  67.0560400  56.1433370  26.4386220  66.2749780  56.4571990
  26.3221790  67.7667220  56.6874550  18.5050590  51.9582620  58.3384680
  18.0618740  52.7392160  58.0069200  19.0635580  52.2812510  59.0455620
  21.6209410  51.5793320  53.2190510  20.9963590  51.5753190  53.9443820
  21.5339530  50.7124280  52.8226480  20.5426490  52.5029950  60.1974280
  20.8398820  53.4092780  60.1166300  21.0912050  52.0148730  59.5833850
  18.2964810  57.0816190  56.0665930  18.0705730  56.8653360  56.9712550
  17.5157340  57.5144650  55.7211900  25.5262570  57.0879560  54.6656580
  24.9271460  57.8115360  54.4820200  26.0742180  57.0256340  53.8833030
  24.1327440  55.7243100  56.6959860  24.5257010  56.0415300  55.8828550
  24.4944290  54.8454980  56.8104380  13.1691610  52.3143900  58.9190060
  12.8804660  52.8846760  59.6315040  13.9137370  51.8348350  59.2821290
  13.3561840  56.2564020  50.1292780  13.2736510  57.1994780  50.2707770
  13.0044900  56.1138930  49.2505130  21.1559970  54.9903050  59.1963130
  21.1596030  54.5493000  58.3467670  22.0511090  55.3120380  59.3034950
  17.0062350  54.8729540  58.1557340  16.6662400  55.3504770  58.9124390
  16.2439670  54.4194660  57.7958440  21.2180120  55.9915130  52.1869890
  21.3392940  55.9501610  53.1355710  20.8328630  56.8539280  52.0316620
  20.2301620  58.3016270  51.5853190  19.6618520  57.8534520  50.9589100
  20.9390620  58.6609050  51.0518340  14.3208430  53.7948520  57.0722010
  14.0355350  53.4304190  57.9100630  14.2587290  53.0628980  56.4585150
  17.7749100  62.2974460  53.8579600  17.0011360  61.7572080  53.6978320
  18.5043730  61.7781070  53.5197360  28.5337080  61.2939820  59.6505990
  29.2536200  61.7895110  59.2602100  28.3318900  60.6157710  59.0059860
  23.9947020  52.6877780  53.7935380  23.1811630  52.1890950  53.7180690
  23.8008970  53.5276030  53.3771730  26.7095410  57.0597430  52.0897540
  27.5975030  57.3714660  51.9148880  26.6800500  56.1869680  51.6978120
  17.8186500  61.9654840  57.4958410  18.3365170  61.1623100  57.4415300
  17.3670520  61.9033980  58.3375240  22.7056000  63.2321120  52.7685710
  23.0471700  63.9763350  52.2729030  21.8768710  63.5452240  53.1310540
  28.9809680  58.3709270  51.5577400  28.8973400  58.8023490  50.7073840
  29.7003870  58.8307620  51.9904220  30.0096930  65.2251530  54.2859530
  29.3673090  64.5707150  54.5603250  29.6227590  65.6306620  53.5100200
  25.5883410  62.5536960  58.1331220  25.9407230  61.9565090  57.4732590
  24.7045740  62.2281190  58.3039470  21.6746690  63.3134650  55.5401630
  22.3617820  63.8603860  55.9209220  20.8879110  63.8575380  55.5751240
  13.8139090  58.9307470  51.0318710  14.6833940  59.2132270  51.3154630
  13.3229410  59.7443340  50.9167520  20.9773900  60.3180680  55.1526990
  21.4336680  61.1285930  55.3787180  20.6262110  60.0003820  55.9845480
  16.8785680  50.6618330  55.6249510  16.7500310  50.6536230  56.5734430
  16.0547700  51.0001420  55.2740520  28.3994310  64.1167990  50.8235880
  28.1731890  63.3998430  51.4160520  28.0090510  63.8680430  49.9857630
  14.1810340  68.1434850  51.5980340  14.5407980  68.7424190  50.9437610
  14.0402680  68.6894740  52.3715370  27.9810560  62.0339930  52.4850040
  27.6932260  62.4952620  53.2727920  28.7762730  61.5737700  52.7534260
  20.1978960  65.5266050  52.4154010  20.1889060  66.2595740  51.7998520
  19.2777320  65.2797630  52.5080970  15.7985600  60.7480940  53.1600770
  15.1913550  61.4879840  53.1696070  16.2734950  60.8380300  52.3338970
  28.7380420  53.8688700  53.6445220  28.1093580  53.9734370  52.9303450
  28.2432340  54.0885480  54.4339100  23.1838560  65.5894290  51.0779200
  23.2850540  65.3858280  50.1481180  22.2840300  65.3352570  51.2826980
  20.7064450  56.1474650  55.0603100  19.9980600  56.6160990  55.5016710
  20.9908930  55.4896660  55.6948290  24.7379880  52.8725310  56.4998890
  24.6147660  52.8911440  55.5508400  25.6864440  52.9204250  56.6197290
  21.8256670  68.1080610  55.7726870  22.0798170  68.0702000  54.8506240
  20.8769150  67.9813940  55.7655120  18.9099470  54.4559730  52.4353810
  19.7590000  54.8929880  52.3694000  18.5430740  54.7679990  53.2625870
  27.8309250  59.0272490  57.3485380  26.8899390  59.0422720  57.5233070
  28.1453320  58.2408450  57.7945680  17.8090890  60.7092090  50.9089340
  18.5754160  60.5973450  51.4714770  17.8865580  60.0130060  50.2566110
  16.5037650  58.1417160  51.5922230  16.5841240  57.1944670  51.7039630
  17.3957400  58.4724040  51.6982890  29.8334830  66.1981340  59.0239640
  29.9582250  67.0212510  59.4963450  30.7000390  65.9872070  58.6763790
  17.3052360  68.2912550  58.6956770  18.0414840  67.7428010  58.9665340
  17.6893280  69.1568560  58.5562760  14.1897840  64.3586120  54.5698280
  13.2637620  64.6007260  54.5603690  14.6554270  65.1860380  54.4483030
  20.4154670  67.4642860  50.5182340  21.2083280  67.7531690  50.0664130
  19.8959020  67.0335030  49.8394820  29.4684840  66.6912990  51.9419080
  29.1826350  66.2778130  51.1273260  29.2704390  67.6200700  51.8219600
  20.9332070  62.6846270  50.3824690  20.8282710  62.0698620  51.1086070
  20.7656290  62.1612160  49.5987700  24.1734800  61.7466300  50.9866680
  23.6244900  62.1935600  51.6309420  24.7954060  61.2415550  51.5104350
  19.8409920  60.7057220  52.8831980  20.2626340  60.5397090  53.7263370
  19.9660760  59.8957450  52.3887120  22.3537560  59.7294830  50.1309080
  22.8743220  59.0143850  49.7650230  23.0005960  60.3680700  50.4309590
  18.7368820  56.7790450  49.8290140  18.5357880  55.9157810  50.1903480
  18.5660870  56.6923810  48.8911740  26.2157130  51.5898680  52.3577020
  26.4959420  50.7466580  52.7136440  25.4422860  51.8221790  52.8715770
  17.5351620  53.8791070  49.8168020  17.8377520  53.8858500  48.9087170
  18.2746210  53.5288930  50.3135680  20.7536550  52.8225690  50.8024220
  20.4058550  52.1449680  50.2226670  20.9549320  52.3615200  51.6167610
  22.9185590  67.8106440  52.4210820  23.8136380  68.1491410  52.4429580
  22.9503220  67.0885850  51.7935100  16.5581750  63.1833490  50.6497820
  16.9956620  63.7263160  51.3055400  17.0429480  62.3580440  50.6594160
  13.7727550  65.9722520  58.1018080  14.1030560  65.1043580  57.8696720
  14.2018550  66.1781040  58.9323040  18.3689470  64.3031530  55.7620050
  18.0685010  64.1796500  56.6623960  18.2626960  63.4440120  55.3535780
  30.5937850  60.8275410  52.9680930  31.3556760  61.3972060  53.0740620
  30.6092220  60.2602610  53.7389240  14.0942190  59.3513340  57.1988590
  13.4391030  59.0824980  56.5548290  14.9320140  59.2417820  56.7490570
  31.5997820  61.6825510  57.8122860  31.9706650  60.8992830  57.4058830
  32.2399750  62.3714610  57.6340160  27.0432630  54.1454630  51.4207080
  27.4617510  53.9585610  50.5803740  26.7368690  53.2933680  51.7310010
  30.5422360  59.0578770  55.1182880  30.1665960  58.2906700  54.6864170
  29.8125480  59.4401470  55.6057810  13.3080270  56.5612270  53.1413920
  12.4044350  56.8242470  52.9665580  13.7920890  56.8323440  52.3613880
  29.8173320  57.2836260  58.4190120  30.3410800  56.7898910  57.7880290
  30.4032740  57.4186620  59.1637690  15.8507480  55.6177810  51.0508300
  16.5599180  55.1961030  50.5655580  15.1347420  55.6853040  50.4191650
  15.4981640  51.6717140  50.0910950  16.2209770  52.2126080  50.4092170
  15.7706160  51.3980560  49.2152490  29.3073290  56.5409610  54.3582530
  29.8032410  56.3080480  55.1431410  29.1089360  55.7021450  53.9420170
  30.7360450  55.1770560  56.8920210  30.6259730  55.0226600  57.8302480
  31.4968040  54.6491500  56.6495620  31.6250720  53.0078480  50.1326350
  32.5500030  52.8759660  49.9244640  31.6026510  53.0871300  51.0862800
  31.6989210  53.7789140  52.7583060  30.9040710  53.7134260  53.2875970
  31.9032490  54.7139780  52.7468410  28.6407630  67.8180690  56.7521450
  29.2366700  67.4965260  56.0755870  28.8985780  67.3452510  57.5434720
  19.6215560  66.7764230  59.7567310  20.1380580  66.1651590  59.2315570
  20.2712940  67.2793010  60.2478320  28.1309140  52.1086020  59.2081890
  28.5717230  52.0531120  58.3603490  27.8616730  53.0244030  59.2792070
  29.9947710  51.7401260  57.2190710  29.9336110  50.7962480  57.0721730
  30.7739740  51.8481350  57.7644170  14.3000460  67.8793620  56.1814660
  14.1322500  67.2464300  56.8796550  13.4334970  68.0853020  55.8308850
  14.9228480  51.7110400  53.6846520  15.6807840  51.8239280  53.1110550
  14.4605650  52.5479600  53.6389950  21.4642290  53.8249670  56.6748830
  20.6516800  53.4506560  56.3344710  21.9683930  53.0694750  56.9770020
  25.9667270  50.4892120  57.9131900  26.5696640  51.0612330  58.3880420
  25.2260260  51.0531560  57.6905800  29.1101870  50.8913680  53.1872180
  29.3052500  51.7897130  53.4539610  28.3231740  50.6600760  53.6805130
  15.9063160  66.5726850  53.6264800  15.3810780  66.9534880  52.9226760
  15.8307740  67.1977620  54.3474510  17.2953630  52.2374450  52.2248490
  17.8246390  51.4504250  52.0956440  17.9281950  52.9165640  52.4584020
  19.4891470  51.9749590  55.2793880  18.8594210  51.2736900  55.4464010
  18.9496610  52.7353720  55.0627040  30.6628480  68.1314390  54.9478740
  30.8380670  67.4452130  54.3039660  29.9650050  68.6561440  54.5555410
  18.5056130  68.5209230  52.5014050  19.2374950  68.2368510  51.9537940
  18.7649800  68.2822510  53.3913430  17.6670920  64.6373960  52.5060380
  17.0379800  65.1059060  53.0546210  17.7818750  63.7923180  52.9406570
  14.8854340  53.7470350  42.8697630  14.7057180  52.8496100  43.1500390
  14.4834420  54.2942220  43.5444580  23.7252840  55.9486210  40.7709940
  24.1017660  55.0758090  40.6583610  23.6272350  56.2844910  39.8800380
  17.9801680  51.9296770  44.8315980  17.9820120  52.4469160  44.0261880
  17.1505990  51.4526950  44.8085910  17.6617010  53.6406730  42.8386430
  18.0033820  54.4848780  42.5440300  16.7232820  53.7890470  42.9551770
  13.7355970  62.7272610  33.7045510  13.3583950  63.2159710  32.9730410
  13.9929040  63.3997890  34.3352040  21.3444900  51.1289000  39.1631020
  21.6519880  50.5735890  38.4466520  20.4145600  51.2633460  38.9804010
  18.8982430  63.1451820  47.4957880  18.0010960  63.3691790  47.7431280
  18.9235300  63.2686760  46.5469280  17.7253650  60.0165140  46.0715250
  17.5861420  60.8887940  46.4402650  16.8435010  59.6737950  45.9263190
  19.5234000  65.9586840  48.2800400  19.4949430  66.3629790  47.4128830
  19.3598970  65.0297200  48.1172000  26.4179340  65.4297690  33.2941390
  25.7244500  65.4274980  32.6343670  27.1602200  65.0057010  32.8635560
  18.5050590  51.9582620  39.5641190  18.0618740  52.7392160  39.2325710
  19.0635580  52.2812510  40.2712130  24.8874620  57.5461840  48.3971960
  25.2128030  56.7125590  48.0574190  25.6754950  58.0690360  48.5450290
  20.7364020  57.9801770  47.9582710  20.6407620  57.0396500  47.8083110
  21.5796000  58.2016840  47.5630780  15.8674560  54.3915440  46.1116490
  15.4737950  55.2390650  46.3189270  15.1792960  53.7541810  46.3025130
  22.4419610  54.4750410  49.1813230  21.7517930  54.2822610  49.8159320
  23.1851910  54.7585050  49.7137530  13.1691610  52.3143900  40.1446570
  12.8804660  52.8846760  40.8571550  13.9137370  51.8348350  40.5077800
  13.3561840  56.2564020  31.3549290  13.2736510  57.1994780  31.4964280
  13.0044900  56.1138930  30.4761640  15.3070800  62.2028290  46.6876430
  14.9225590  61.5621960  47.2859390  15.6182990  62.9064410  47.2571160
  19.2467310  58.0913470  44.4869260  18.9424380  58.9705450  44.7119620
  20.2013770  58.1513260  44.5226700  15.3031040  58.9316210  45.6340620
  14.9445980  59.5970060  46.2213960  15.0085600  58.0999760  46.0053240
  18.5044160  59.3900450  48.5180170  18.2044300  59.5357630  47.6207990
  19.2755400  58.8305740  48.4253560  13.8139090  58.9307470  32.2575220
  14.6833940  59.2132270  32.5411140  13.3229410  59.7443340  32.1424030
  23.2806510  65.8287020  43.6075800  23.9248730  66.0346400  44.2849220
  23.6435950  65.0675420  43.1546650  16.8785680  50.6618330  36.8506020
  16.7500310  50.6536230  37.7990940  16.0547700  51.0001420  36.4997030
  28.3994310  64.1167990  32.0492390  28.1731890  63.3998430  32.6417030
  28.0090510  63.8680430  31.2114140  14.1810340  68.1434850  32.8236850
  14.5407980  68.7424190  32.1694120  14.0402680  68.6894740  33.5971880
  13.8779610  52.4209450  46.3112720  13.1638130  52.6206370  46.9165330
  14.2974650  51.6449020  46.6827520  14.1652200  66.4089710  47.2979250
  14.2743320  65.4684450  47.1574640  13.5132760  66.6744460  46.6492980
  22.1564790  64.6805600  48.6977370  21.8361660  63.9614840  49.2423060
  21.4823150  65.3560670  48.7713430  15.7985600  60.7480940  34.3857280
  15.1913550  61.4879840  34.3952580  16.2734950  60.8380300  33.5595480
  24.7379880  52.8725310  37.7255400  24.6147660  52.8911440  36.7764910
  25.6864440  52.9204250  37.8453800  17.8090890  60.7092090  32.1345850
  18.5754160  60.5973450  32.6971280  17.8865580  60.0130060  31.4822620
  14.1897840  64.3586120  35.7954790  13.2637620  64.6007260  35.7860200
  14.6554270  65.1860380  35.6739540  16.3110640  67.4758620  49.1098860
  17.1123370  67.7970670  49.5234260  15.7962460  67.1154200  49.8318770
  29.4684840  66.6912990  33.1675590  29.1826350  66.2778130  32.3529770
  29.2704390  67.6200700  33.0476110  14.0308450  59.9632080  48.0534910
  14.5347470  59.3839360  48.6251140  13.2915870  60.2472310  48.5911280
  20.9332070  62.6846270  31.6081200  20.8282710  62.0698620  32.3342580
  20.7656290  62.1612160  30.8244210  21.0846390  61.3703070  47.5870430
  20.3192060  61.9388070  47.5025100  21.2662350  61.0779280  46.6938660
  16.0631530  58.1061670  48.9484980  16.1036870  57.8075540  49.8570210
  16.9177030  58.5069280  48.7892500  18.0037340  56.6853770  46.9159470
  17.4733800  56.1944720  46.2882810  18.6725410  57.1137970  46.3817400
  27.3737570  58.4919390  48.6839810  27.9558340  57.7371710  48.5960290
  27.5499340  59.0226830  47.9071290  18.4909640  53.6516140  46.9956760
  18.3966510  53.0336890  46.2707630  17.9107030  54.3782430  46.7686670
  21.6630630  61.1043710  44.6496590  22.0818740  61.9476440  44.4772830
  20.7439260  61.2415750  44.4203370  19.5138050  67.4096720  45.7654320
  18.9759140  68.1342780  45.4463020  19.7672010  66.9327060  44.9751660
  20.7663300  55.3781240  47.2910250  21.3562990  55.0697090  47.9788070
  19.9483540  54.9060990  47.4470150  26.2157130  51.5898680  33.5833530
  26.4959420  50.7466580  33.9392950  25.4422860  51.8221790  34.0972280
  16.5581750  63.1833490  31.8754330  16.9956620  63.7263160  32.5311910
  17.0429480  62.3580440  31.8850670  14.6834120  56.6475000  46.8706860
  13.7890170  56.6141760  47.2100570  15.2231670  56.8461790  47.6358110
  28.3710050  53.4306720  48.7558610  29.2480230  53.4390120  49.1392610
  28.3830890  52.6937560  48.1450960  15.1873830  50.9223330  41.2190080
  15.8350020  50.3720710  40.7785240  15.6075670  51.1766480  42.0405890
  14.9405830  51.0779000  43.9615400  14.5920650  51.5342820  44.7273580
  14.6093530  50.1836130  44.0437830  16.5470200  64.2498600  48.1268590
  16.5039830  63.8791510  49.0083050  16.6781210  65.1876170  48.2670410
  20.2476230  65.8058190  43.7278310  20.0067590  66.0732750  42.8408830
  21.1878870  65.9763920  43.7829170  15.6126470  50.6055200  47.2366170
  16.1609460  50.4243250  46.4732280  15.6781780  49.8149310  47.7722480
  14.3000460  67.8793620  37.4071170  14.1322500  67.2464300  38.1053060
  13.4334970  68.0853020  37.0565360  25.9667270  50.4892120  39.1388410
  26.5696640  51.0612330  39.6136930  25.2260260  51.0531560  38.9162310
  19.6147030  51.2533570  48.9402880  19.3331300  51.7567170  48.1763700
  19.9966730  50.4555320  48.5745010  26.2162490  50.6687150  49.5183350
  26.1027940  50.9881760  50.4134870  27.0332230  51.0699660  49.2220630
  17.2704510  60.7778450  22.6403120  16.4389390  60.5227160  23.0399630
  17.8785490  60.8489220  23.3761040  17.2505770  64.8118540  22.8361140
  17.5533810  63.9216280  22.6571360  17.9949360  65.3688760  22.6083390
  15.6796460  55.7380340  16.4245510  14.7913160  56.0796310  16.3225390
  15.9637650  55.5380660  15.5326340  13.6429470  58.3385990  22.3085210
  14.2145580  57.5708190  22.3088850  13.6431010  58.6374750  21.3991820
  23.5009420  67.1576840  20.1630480  22.8820860  67.6134340  19.5924920
  24.3561200  67.3128300  19.7620180  14.8854340  53.7470350  24.0954140
  14.7057180  52.8496100  24.3756900  14.4834420  54.2942220  24.7701090
  17.8557850  54.3211840  17.4583890  17.9624600  55.2215570  17.7652650
  16.9450210  54.2729810  17.1678540  27.5076960  53.4436650  18.9294790
  28.3286580  52.9533220  18.9720270  27.5411040  54.0334310  19.6826630
  15.5041010  56.2430850  22.7036480  16.1851120  56.5069220  23.3223880
  15.1889060  55.4031720  23.0374490  17.9801680  51.9296770  26.0572490
  17.9820120  52.4469160  25.2518390  17.1505990  51.4526950  26.0342420
  24.3672770  62.0416080  17.5562390  23.7490040  62.5065530  16.9925110
  24.8796020  62.7343560  17.9731900  19.2304530  61.5691950  24.2345990
  18.8973910  62.1960870  24.8767060  19.4071210  62.0953830  23.4547660
  18.4423630  63.5372750  26.0495170  19.0597630  64.2123830  25.7679620
  17.5816750  63.9460730  25.9582670  13.7355970  62.7272610  14.9302020
  13.3583950  63.2159710  14.1986920  13.9929040  63.3997890  15.5608550
  30.8125360  54.8291820  22.0931540  29.8650270  54.8630800  22.2246970
  31.1375350  55.6430770  22.4780900  21.3444900  51.1289000  20.3887530
  21.6519880  50.5735890  19.6723030  20.4145600  51.2633460  20.2060520
  28.1905380  63.5672510  17.7685160  28.0801710  62.6246840  17.8934580
  28.1873630  63.9288150  18.6547920  23.7325660  59.1937830  17.1247650
  22.8054940  59.1275210  17.3536120  23.8850480  60.1317960  17.0102890
  23.7194740  55.4654830  14.1214810  22.7798410  55.6268790  14.2067270
  24.0378000  56.1840510  13.5750800  27.7622950  60.7558130  17.6282900
  27.1435370  60.4177680  16.9809200  27.7447400  60.1117890  18.3362090
  19.3382300  59.7202570  19.9067380  18.9339300  59.0079820  19.4113280
  19.4245420  59.3755810  20.7955420  19.8064000  63.4070130  22.0706590
  19.5092290  62.8015600  21.3914370  20.7563820  63.4447440  21.9595950
  18.0510920  56.4945780  23.6866420  18.6025510  56.6041120  22.9119670
  18.5654430  56.8683380  24.4021650  18.8982430  63.1451820  28.7214390
  18.0010960  63.3691790  28.9687790  18.9235300  63.2686760  27.7725790
  25.9387650  59.9944940  14.6355650  26.3780930  59.1567370  14.4893470
  26.6516070  60.6274340  14.7219790  24.0483030  64.9341010  18.6036890
  24.4878940  65.6765340  18.1892280  23.9869920  65.1767580  19.5275850
  29.5204790  51.2487750  12.9496690  29.2077450  51.3414580  13.8495760
  30.2817260  51.8268780  12.8994120  16.0386930  58.6147550  17.4074030
  15.9184530  59.3409640  16.7955300  15.7287820  57.8450460  16.9301940
  13.6772300  61.7862690  23.2142670  13.7552720  61.9211460  22.2698390
  14.2913980  61.0778580  23.4070790  14.9219930  63.4862880  19.6248850
  14.5148010  63.6277470  18.7702450  15.8132940  63.2023040  19.4220060
  24.7398810  67.6354790  26.5315900  25.2543480  67.5462800  27.3338330
  23.8967890  67.9814490  26.8243810  26.7153210  67.9210130  15.9599900
  26.5554350  67.6313070  16.8581730  26.5499920  67.1450260  15.4245130
  19.1941590  67.7008660  17.7371520  19.0184070  66.7844200  17.5239320
  18.3397330  68.0595950  17.9769320  26.4179340  65.4297690  14.5197900
  25.7244500  65.4274980  13.8600180  27.1602200  65.0057010  14.0892070
  25.9829270  67.0560400  18.5946390  26.4386220  66.2749780  18.9085010
  26.3221790  67.7667220  19.1387570  13.7331820  62.8276860  25.7537130
  13.8962860  62.3582220  24.9356500  14.1984270  62.3200420  26.4185970
  18.5050590  51.9582620  20.7897700  18.0618740  52.7392160  20.4582220
  19.0635580  52.2812510  21.4968640  21.6209410  51.5793320  15.6703530
  20.9963590  51.5753190  16.3956840  21.5339530  50.7124280  15.2739500
  20.5426490  52.5029950  22.6487300  20.8398820  53.4092780  22.5679320
  21.0912050  52.0148730  22.0346870  18.2964810  57.0816190  18.5178950
  18.0705730  56.8653360  19.4225570  17.5157340  57.5144650  18.1724920
  25.5262570  57.0879560  17.1169600  24.9271460  57.8115360  16.9333220
  26.0742180  57.0256340  16.3346050  24.1327440  55.7243100  19.1472880
  24.5257010  56.0415300  18.3341570  24.4944290  54.8454980  19.2617400
  13.1691610  52.3143900  21.3703080  12.8804660  52.8846760  22.0828060
  13.9137370  51.8348350  21.7334310  13.3561840  56.2564020  12.5805800
  13.2736510  57.1994780  12.7220790  13.0044900  56.1138930  11.7018150
  17.0062350  54.8729540  20.6070360  16.6662400  55.3504770  21.3637410
  16.2439670  54.4194660  20.2471460  21.2180120  55.9915130  14.6382910
  21.3392940  55.9501610  15.5868730  20.8328630  56.8539280  14.4829640
  20.2301620  58.3016270  14.0366210  19.6618520  57.8534520  13.4102120
  20.9390620  58.6609050  13.5031360  15.3070800  62.2028290  27.9132940
  14.9225590  61.5621960  28.5115900  15.6182990  62.9064410  28.4827670
  14.3208430  53.7948520  19.5235030  14.0355350  53.4304190  20.3613650
  14.2587290  53.0628980  18.9098170  17.7749100  62.2974460  16.3092620
  17.0011360  61.7572080  16.1491340  18.5043730  61.7781070  15.9710380
  23.9947020  52.6877780  16.2448400  23.1811630  52.1890950  16.1693710
  23.8008970  53.5276030  15.8284750  26.7095410  57.0597430  14.5410560
  27.5975030  57.3714660  14.3661900  26.6800500  56.1869680  14.1491140
  17.8186500  61.9654840  19.9471430  18.3365170  61.1623100  19.8928320
  17.3670520  61.9033980  20.7888260  22.7056000  63.2321120  15.2198730
  23.0471700  63.9763350  14.7242050  21.8768710  63.5452240  15.5823560
  15.3031040  58.9316210  26.8597130  14.9445980  59.5970060  27.4470470
  15.0085600  58.0999760  27.2309750  23.8472610  64.1869450  27.7391810
  23.8617150  63.2550410  27.5210720  23.1397710  64.2729210  28.3781580
  28.9809680  58.3709270  14.0090420  28.8973400  58.8023490  13.1586860
  29.7003870  58.8307620  14.4417240  30.0096930  65.2251530  16.7372550
  29.3673090  64.5707150  17.0116270  29.6227590  65.6306620  15.9613220
  21.6746690  63.3134650  17.9914650  22.3617820  63.8603860  18.3722240
  20.8879110  63.8575380  18.0264260  13.8139090  58.9307470  13.4831730
  14.6833940  59.2132270  13.7667650  13.3229410  59.7443340  13.3680540
  20.9773900  60.3180680  17.6040010  21.4336680  61.1285930  17.8300200
  20.6262110  60.0003820  18.4358500  23.2806510  65.8287020  24.8332310
  23.9248730  66.0346400  25.5105730  23.6435950  65.0675420  24.3803160
  16.8785680  50.6618330  18.0762530  16.7500310  50.6536230  19.0247450
  16.0547700  51.0001420  17.7253540  28.3994310  64.1167990  13.2748900
  28.1731890  63.3998430  13.8673540  28.0090510  63.8680430  12.4370650
  14.1810340  68.1434850  14.0493360  14.5407980  68.7424190  13.3950630
  14.0402680  68.6894740  14.8228390  13.8779610  52.4209450  27.5369230
  13.1638130  52.6206370  28.1421840  14.2974650  51.6449020  27.9084030
  27.9810560  62.0339930  14.9363060  27.6932260  62.4952620  15.7240940
  28.7762730  61.5737700  15.2047280  14.1652200  66.4089710  28.5235760
  14.2743320  65.4684450  28.3831150  13.5132760  66.6744460  27.8749490
  22.1564790  64.6805600  29.9233880  21.8361660  63.9614840  30.4679570
  21.4823150  65.3560670  29.9969940  20.1978960  65.5266050  14.8667030
  20.1889060  66.2595740  14.2511540  19.2777320  65.2797630  14.9593990
  15.7985600  60.7480940  15.6113790  15.1913550  61.4879840  15.6209090
  16.2734950  60.8380300  14.7851990  28.7380420  53.8688700  16.0958240
  28.1093580  53.9734370  15.3816470  28.2432340  54.0885480  16.8852120
  23.1838560  65.5894290  13.5292220  23.2850540  65.3858280  12.5994200
  22.2840300  65.3352570  13.7340000  20.7064450  56.1474650  17.5116120
  19.9980600  56.6160990  17.9529730  20.9908930  55.4896660  18.1461310
  24.7379880  52.8725310  18.9511910  24.6147660  52.8911440  18.0021420
  25.6864440  52.9204250  19.0710310  21.8256670  68.1080610  18.2239890
  22.0798170  68.0702000  17.3019260  20.8769150  67.9813940  18.2168140
  18.9099470  54.4559730  14.8866830  19.7590000  54.8929880  14.8207020
  18.5430740  54.7679990  15.7138890  17.8090890  60.7092090  13.3602360
  18.5754160  60.5973450  13.9227790  17.8865580  60.0130060  12.7079130
  16.5037650  58.1417160  14.0435250  16.5841240  57.1944670  14.1552650
  17.3957400  58.4724040  14.1495910  17.3052360  68.2912550  21.1469790
  18.0414840  67.7428010  21.4178360  17.6893280  69.1568560  21.0075780
  14.1897840  64.3586120  17.0211300  13.2637620  64.6007260  17.0116710
  14.6554270  65.1860380  16.8996050  16.3110640  67.4758620  30.3355370
  17.1123370  67.7970670  30.7490770  15.7962460  67.1154200  31.0575280
  20.4154670  67.4642860  12.9695360  21.2083280  67.7531690  12.5177150
  19.8959020  67.0335030  12.2907840  25.1475270  63.5838490  30.2830780
  24.5413430  63.6070090  29.5426530  24.8429380  62.8521530  30.8198030
  26.5775640  67.3118780  28.8940190  27.5297390  67.2276800  28.8440430
  26.4303860  67.9760490  29.5673980  29.4684840  66.6912990  14.3932100
  29.1826350  66.2778130  13.5786280  29.2704390  67.6200700  14.2732620
  14.0308450  59.9632080  29.2791420  14.5347470  59.3839360  29.8507650
  13.2915870  60.2472310  29.8167790  20.9332070  62.6846270  12.8337710
  20.8282710  62.0698620  13.5599090  20.7656290  62.1612160  12.0500720
  24.1734800  61.7466300  13.4379700  23.6244900  62.1935600  14.0822440
  24.7954060  61.2415550  13.9617370  28.2269740  63.1008400  29.3701960
  28.9679210  63.4384160  28.8669420  27.4642420  63.2700460  28.8171730
  19.8409920  60.7057220  15.3345000  20.2626340  60.5397090  16.1776390
  19.9660760  59.8957450  14.8400140  22.3537560  59.7294830  12.5822100
  22.8743220  59.0143850  12.2163250  23.0005960  60.3680700  12.8822610
  18.7368820  56.7790450  12.2803160  18.5357880  55.9157810  12.6416500
  18.5660870  56.6923810  11.3424760  19.5138050  67.4096720  26.9910830
  18.9759140  68.1342780  26.6719530  19.7672010  66.9327060  26.2008170
  26.2157130  51.5898680  14.8090040  26.4959420  50.7466580  15.1649460
  25.4422860  51.8221790  15.3228790  17.5351620  53.8791070  12.2681040
  17.8377520  53.8858500  11.3600190  18.2746210  53.5288930  12.7648700
  20.7536550  52.8225690  13.2537240  20.4058550  52.1449680  12.6739690
  20.9549320  52.3615200  14.0680630  22.9185590  67.8106440  14.8723840
  23.8136380  68.1491410  14.8942600  22.9503220  67.0885850  14.2448120
  16.5581750  63.1833490  13.1010840  16.9956620  63.7263160  13.7568420
  17.0429480  62.3580440  13.1107180  13.7727550  65.9722520  20.5531100
  14.1030560  65.1043580  20.3209740  14.2018550  66.1781040  21.3836060
  18.3689470  64.3031530  18.2133070  18.0685010  64.1796500  19.1136980
  18.2626960  63.4440120  17.8048800  14.2617760  66.8393110  23.2912730
  13.8248750  67.0193910  24.1236880  14.8295440  67.5967730  23.1494450
  31.1381390  64.0827930  12.9159750  30.3074350  64.1504580  13.3866980
  31.3153220  64.9732050  12.6126610  30.5937850  60.8275410  15.4193950
  31.3556760  61.3972060  15.5253640  30.6092220  60.2602610  16.1902260
  14.0942190  59.3513340  19.6501610  13.4391030  59.0824980  19.0061310
  14.9320140  59.2417820  19.2003590  30.6457020  61.1209780  12.5766470
  30.9205860  62.0288660  12.4485690  30.4567760  61.0572310  13.5128460
  27.0432630  54.1454630  13.8720100  27.4617510  53.9585610  13.0316760
  26.7368690  53.2933680  14.1823030  30.5422360  59.0578770  17.5695900
  30.1665960  58.2906700  17.1377190  29.8125480  59.4401470  18.0570830
  15.1318120  59.7365910  24.1904950  15.4991160  59.6493310  25.0700970
  14.5628940  58.9732460  24.0911810  14.6834120  56.6475000  28.0963370
  13.7890170  56.6141760  28.4357080  15.2231670  56.8461790  28.8614620
  13.3080270  56.5612270  15.5926940  12.4044350  56.8242470  15.4178600
  13.7920890  56.8323440  14.8126900  15.8507480  55.6177810  13.5021320
  16.5599180  55.1961030  13.0168600  15.1347420  55.6853040  12.8704670
  15.4981640  51.6717140  12.5423970  16.2209770  52.2126080  12.8605190
  15.7706160  51.3980560  11.6665510  29.3073290  56.5409610  16.8095550
  29.8032410  56.3080480  17.5944430  29.1089360  55.7021450  16.3933190
  15.1873830  50.9223330  22.4446590  15.8350020  50.3720710  22.0041750
  15.6075670  51.1766480  23.2662400  30.7360450  55.1770560  19.3433230
  30.6259730  55.0226600  20.2815500  31.4968040  54.6491500  19.1008640
  29.0826170  51.1164690  25.8016230  29.7198390  51.7298830  26.1675420
  29.2301060  51.1525350  24.8565460  31.6250720  53.0078480  12.5839370
  32.5500030  52.8759660  12.3757660  31.6026510  53.0871300  13.5375820
  31.6989210  53.7789140  15.2096080  30.9040710  53.7134260  15.7388990
  31.9032490  54.7139780  15.1981430  28.6407630  67.8180690  19.2034470
  29.2366700  67.4965260  18.5268890  28.8985780  67.3452510  19.9947740
  14.9405830  51.0779000  25.1871910  14.5920650  51.5342820  25.9530090
  14.6093530  50.1836130  25.2694340  16.5470200  64.2498600  29.3525100
  16.5039830  63.8791510  30.2339560  16.6781210  65.1876170  29.4926920
  20.2476230  65.8058190  24.9534820  20.0067590  66.0732750  24.0665340
  21.1878870  65.9763920  25.0085680  15.6126470  50.6055200  28.4622680
  16.1609460  50.4243250  27.6988790  15.6781780  49.8149310  28.9978990
  16.3858230  67.1960850  26.4722880  15.7918550  67.0645550  27.2112920
  16.3782070  66.3598990  26.0064980  25.8313250  50.4893080  24.6752910
  24.9573090  50.8228190  24.4725840  25.7224000  50.0166260  25.5004780
  16.0170460  64.5619230  25.4230920  15.2904520  63.9424520  25.3556870
  16.0779610  64.9559840  24.5529000  19.6215560  66.7764230  22.2080330
  20.1380580  66.1651590  21.6828590  20.2712940  67.2793010  22.6991340
  22.3611060  67.6672720  23.0349310  22.6488870  67.4127020  22.1582320
  22.8734280  67.1150080  23.6254880  23.5788070  51.4062920  23.6145820
  22.7959860  51.8808420  23.8942580  23.2851000  50.5017750  23.5059000
  28.1309140  52.1086020  21.6594910  28.5717230  52.0531120  20.8116510
  27.8616730  53.0244030  21.7305090  29.9947710  51.7401260  19.6703730
  29.9336110  50.7962480  19.5234750  30.7739740  51.8481350  20.2157190
  14.9228480  51.7110400  16.1359540  15.6807840  51.8239280  15.5623570
  14.4605650  52.5479600  16.0902970  21.4642290  53.8249670  19.1261850
  20.6516800  53.4506560  18.7857730  21.9683930  53.0694750  19.4283040
  25.9667270  50.4892120  20.3644920  26.5696640  51.0612330  20.8393440
  25.2260260  51.0531560  20.1418820  29.1101870  50.8913680  15.6385200
  29.3052500  51.7897130  15.9052630  28.3231740  50.6600760  16.1318150
  15.9063160  66.5726850  16.0777820  15.3810780  66.9534880  15.3739780
  15.8307740  67.1977620  16.7987530  17.2953630  52.2374450  14.6761510
  17.8246390  51.4504250  14.5469460  17.9281950  52.9165640  14.9097040
  19.4891470  51.9749590  17.7306900  18.8594210  51.2736900  17.8977030
  18.9496610  52.7353720  17.5140060  30.6628480  68.1314390  17.3991760
  30.8380670  67.4452130  16.7552680  29.9650050  68.6561440  17.0068430
  18.5056130  68.5209230  14.9527070  19.2374950  68.2368510  14.4050960
  18.7649800  68.2822510  15.8426450  17.6670920  64.6373960  14.9573400
  17.0379800  65.1059060  15.5059230  17.7818750  63.7923180  15.3919590
  26.2162490  50.6687150  30.7439860  26.1027940  50.9881760  31.6391380
  27.0332230  51.0699660  30.4477140  28.9960980  67.8158680  30.2258550
  29.7886300  67.3207910  30.0184510  29.2894130  68.4948820  30.8334160
  23.2538680  60.4658640   2.9883870  22.4780780  59.9859080   3.2782440
  23.9051610  59.7864290   2.8140030  17.2704510  60.7778450   3.8659630
  16.4389390  60.5227160   4.2656140  17.8785490  60.8489220   4.6017550
  27.2746110  64.8718830   1.7683000  26.8127640  64.1006070   2.0970170
  28.0871660  64.8984900   2.2735450  17.2505770  64.8118540   4.0617650
  17.5533810  63.9216280   3.8827870  17.9949360  65.3688760   3.8339900
  13.6429470  58.3385990   3.5341720  14.2145580  57.5708190   3.5345360
  13.6431010  58.6374750   2.6248330  22.6947670  63.1415830   2.9954030
  22.6255950  62.2005770   2.8343160  23.4567530  63.2317240   3.5676600
  14.8854340  53.7470350   5.3210650  14.7057180  52.8496100   5.6013410
  14.4834420  54.2942220   5.9957600  23.7252840  55.9486210   3.2222960
  24.1017660  55.0758090   3.1096630  23.6272350  56.2844910   2.3313400
  15.5041010  56.2430850   3.9292990  16.1851120  56.5069220   4.5480390
  15.1889060  55.4031720   4.2631000  19.6965580  57.2898210   3.0165580
  20.2043800  57.7879180   3.6570600  20.2278820  56.5133410   2.8404940
  31.7976510  55.4603400   6.7194930  31.0928680  55.8485110   6.2010040
  32.0634430  56.1553690   7.3215860  17.9801680  51.9296770   7.2829000
  17.9820120  52.4469160   6.4774900  17.1505990  51.4526950   7.2598930
  19.2304530  61.5691950   5.4602500  18.8973910  62.1960870   6.1023570
  19.4071210  62.0953830   4.6804170  27.7438440  55.3837030   2.9278840
  27.0394010  55.6721920   3.5081950  28.1050600  56.1937140   2.5678400
  17.6617010  53.6406730   5.2899450  18.0033820  54.4848780   4.9953320
  16.7232820  53.7890470   5.4064790  18.4423630  63.5372750   7.2751680
  19.0597630  64.2123830   6.9936130  17.5816750  63.9460730   7.1839180
  29.3601220  65.0012160   5.1906320  28.6764740  65.6711270   5.1822990
  29.8995510  65.1992810   4.4251180  30.8125360  54.8291820   3.3188050
  29.8650270  54.8630800   3.4503480  31.1375350  55.6430770   3.7037410
  26.8959960  66.8456290   3.9051500  26.9087120  66.4418580   3.0373760
  26.3435180  67.6203580   3.8012930  26.2945400  61.7486130   5.2334110
  26.7114190  61.5346240   4.3987570  27.0185220  62.0058920   5.8042730
  30.2407500  60.1473350   5.3250350  29.4126130  60.2166440   4.8500480
  30.8357980  60.7327660   4.8566180  27.2049510  56.9342670   6.2705220
  26.7920690  57.7596380   6.5245210  26.4725460  56.3487710   6.0781580
  19.8064000  63.4070130   3.2963100  19.5092290  62.8015600   2.6170880
  20.7563820  63.4447440   3.1852460  18.0510920  56.4945780   4.9122930
  18.6025510  56.6041120   4.1376180  18.5654430  56.8683380   5.6278160
  27.8949610  66.9802000   6.9586200  27.4180170  67.7874190   6.7658810
  27.2111400  66.3280330   7.1112410  18.8982430  63.1451820   9.9470900
  18.0010960  63.3691790  10.1944300  18.9235300  63.2686760   8.9982300
  17.7253650  60.0165140   8.5228270  17.5861420  60.8887940   8.8915670
  16.8435010  59.6737950   8.3776210  19.5234000  65.9586840  10.7313420
  19.4949430  66.3629790   9.8641850  19.3598970  65.0297200  10.5685020
  31.4748820  66.7413940  12.0277590  31.9508540  67.2196830  12.7066670
  32.0955980  66.6731430  11.3023090  13.6772300  61.7862690   4.4399180
  13.7552720  61.9211460   3.4954900  14.2913980  61.0778580   4.6327300
  30.8782070  63.9326790   9.1877600  31.0045130  63.6938670   8.2694780
  30.9203450  63.1011330   9.6599680  24.7398810  67.6354790   7.7572410
  25.2543480  67.5462800   8.5594840  23.8967890  67.9814490   8.0500320
  30.7306080  55.9859250  10.1527340  30.1150350  56.4938920   9.6242800
  30.4102500  55.0857580  10.0953280  13.7331820  62.8276860   6.9793640
  13.8962860  62.3582220   6.1613010  14.1984270  62.3200420   7.6442480
  18.5050590  51.9582620   2.0154210  18.0618740  52.7392160   1.6838730
  19.0635580  52.2812510   2.7225150  22.7920400  54.8251140   7.6189530
  22.3299770  55.0334160   8.4309470  22.3898510  54.0110490   7.3160200
  27.7924910  56.0460090   8.7486190  26.9418500  55.7465840   9.0695260
  27.6326700  56.2902100   7.8370010  24.8874620  57.5461840  10.8484980
  25.2128030  56.7125590  10.5087210  25.6754950  58.0690360  10.9963310
  20.5426490  52.5029950   3.8743810  20.8398820  53.4092780   3.7935830
  21.0912050  52.0148730   3.2603380  20.7364020  57.9801770  10.4095730
  20.6407620  57.0396500  10.2596130  21.5796000  58.2016840  10.0143800
  15.8674560  54.3915440   8.5629510  15.4737950  55.2390650   8.7702290
  15.1792960  53.7541810   8.7538150  22.4419610  54.4750410  11.6326250
  21.7517930  54.2822610  12.2672340  23.1851910  54.7585050  12.1650550
  13.1691610  52.3143900   2.5959590  12.8804660  52.8846760   3.3084570
  13.9137370  51.8348350   2.9590820  24.7182580  58.3148850   4.4680170
  23.9863700  58.8235660   4.8170270  24.3206920  57.4978830   4.1668950
  21.1559970  54.9903050   2.8732660  21.1596030  54.5493000   2.0237200
  22.0511090  55.3120380   2.9804480  17.0062350  54.8729540   1.8326870
  16.6662400  55.3504770   2.5893920  16.2439670  54.4194660   1.4727970
  25.1808490  53.7682530   3.8803110  25.1981230  54.2191180   4.7244960
  24.9324070  52.8688170   4.0936550  28.6079240  51.1814710   9.7189490
  28.9325010  50.4504370  10.2447470  28.6435750  50.8628350   8.8170480
  15.3070800  62.2028290   9.1389450  14.9225590  61.5621960   9.7372410
  15.6182990  62.9064410   9.7084180  21.4567940  59.0504830   4.6198070
  21.8238070  58.5763400   5.3659410  21.2673000  59.9246400   4.9606410
  19.2467310  58.0913470   6.9382280  18.9424380  58.9705450   7.1632640
  20.2013770  58.1513260   6.9739720  28.5337080  61.2939820   3.3275520
  29.2536200  61.7895110   2.9371630  28.3318900  60.6157710   2.6829390
  23.9155880  61.3648880   9.2144520  23.8493190  60.4444550   8.9602110
  23.2861020  61.4624320   9.9289160  15.3031040  58.9316210   8.0853640
  14.9445980  59.5970060   8.6726980  15.0085600  58.0999760   8.4566260
  18.5044160  59.3900450  10.9693190  18.2044300  59.5357630  10.0721010
  19.2755400  58.8305740  10.8766580  23.8472610  64.1869450   8.9648320
  23.8617150  63.2550410   8.7467230  23.1397710  64.2729210   9.6038090
  30.0583820  60.8276790   8.3116900  29.3332010  61.4205570   8.1146290
  30.5859280  60.8200330   7.5130270  23.2806510  65.8287020   6.0588820
  23.9248730  66.0346400   6.7362240  23.6435950  65.0675420   5.6059670
  24.5538590  63.8319370   4.7766270  25.1960820  63.1312530   4.8898440
  25.0787940  64.6117810   4.5963160  26.3276210  64.6314270   7.9802330
  26.6632450  65.2180960   8.6580250  25.4076550  64.5006980   8.2100120
  13.8779610  52.4209450   8.7625740  13.1638130  52.6206370   9.3678350
  14.2974650  51.6449020   9.1340540  14.1652200  66.4089710   9.7492270
  14.2743320  65.4684450   9.6087660  13.5132760  66.6744460   9.1006000
  22.1564790  64.6805600  11.1490390  21.8361660  63.9614840  11.6936080
  21.4823150  65.3560670  11.2226450  25.3718390  54.9131760   6.5127190
  25.7399210  54.0926970   6.8406760  24.5116590  54.9733650   6.9282840
  22.3320380  57.5671350   6.7365160  22.8305630  58.0417170   7.4017010
  22.4743330  56.6434870   6.9435190  29.5387240  53.7839310   7.5793550
  29.0360840  54.5244710   7.9187360  30.3543900  54.1723310   7.2630340
  29.8334830  66.1981340   2.7009170  29.9582250  67.0212510   3.1732980
  30.7000390  65.9872070   2.3533320  17.3052360  68.2912550   2.3726300
  18.0414840  67.7428010   2.6434870  17.6893280  69.1568560   2.2332290
  16.3110640  67.4758620  11.5611880  17.1123370  67.7970670  11.9747280
  15.7962460  67.1154200  12.2831790  25.1475270  63.5838490  11.5087290
  24.5413430  63.6070090  10.7683040  24.8429380  62.8521530  12.0454540
  26.5775640  67.3118780  10.1196700  27.5297390  67.2276800  10.0696940
  26.4303860  67.9760490  10.7930490  14.0308450  59.9632080  10.5047930
  14.5347470  59.3839360  11.0764160  13.2915870  60.2472310  11.0424300
  21.0846390  61.3703070  10.0383450  20.3192060  61.9388070   9.9538120
  21.2662350  61.0779280   9.1451680  28.2269740  63.1008400  10.5958470
  28.9679210  63.4384160  10.0925930  27.4642420  63.2700460  10.0428240
  16.0631530  58.1061670  11.3998000  16.1036870  57.8075540  12.3083230
  16.9177030  58.5069280  11.2405520  18.0037340  56.6853770   9.3672490
  17.4733800  56.1944720   8.7395830  18.6725410  57.1137970   8.8330420
  26.9015400  61.1523230   9.1313680  27.3156420  61.3068310   9.9804100
  25.9666400  61.2778450   9.2939460  27.3737570  58.4919390  11.1352830
  27.9558340  57.7371710  11.0473310  27.5499340  59.0226830  10.3584310
  18.4909640  53.6516140   9.4469780  18.3966510  53.0336890   8.7220650
  17.9107030  54.3782430   9.2199690  21.2571080  52.2089380   6.4797170
  20.8088380  52.2313640   5.6342720  20.6236280  51.8108400   7.0767470
  21.6630630  61.1043710   7.1009610  22.0818740  61.9476440   6.9285850
  20.7439260  61.2415750   6.8716390  23.9994530  58.8359890   8.4847450
  24.1190740  58.2401030   9.2242290  24.8588530  58.8729580   8.0648750
  26.3382430  59.3897080   7.0609960  25.8117650  59.9139700   6.4575100
  26.6813770  60.0224470   7.6919690  19.5138050  67.4096720   8.2167340
  18.9759140  68.1342780   7.8976040  19.7672010  66.9327060   7.4264680
  20.7663300  55.3781240   9.7423270  21.3562990  55.0697090  10.4301090
  19.9483540  54.9060990   9.8983170  25.5856730  54.9947050   9.9756290
  24.8972250  54.3328590   9.9106280  26.3062750  54.5485320  10.4204750
  22.3700260  68.6447930   8.4753990  22.2958960  69.5483070   8.7826360
  21.4679100  68.3259830   8.4476060  13.7727550  65.9722520   1.7787610
  14.1030560  65.1043580   1.5466250  14.2018550  66.1781040   2.6092570
  14.2617760  66.8393110   4.5169240  13.8248750  67.0193910   5.3493390
  14.8295440  67.5967730   4.3750960  29.8979940  66.3410110   8.8046550
  29.2981930  66.4002670   8.0610470  30.0273840  65.4015090   8.9343400
  28.5831580  63.0662090   6.9022710  27.7691420  63.4959250   7.1648500
  28.9905780  63.6780500   6.2891760  15.1318120  59.7365910   5.4161460
  15.4991160  59.6493310   6.2957480  14.5628940  58.9732460   5.3168320
  29.9321980  58.2050290   8.4291930  29.7008070  57.9763040   7.5289880
  30.1926530  59.1249840   8.3836820  14.6834120  56.6475000   9.3219880
  13.7890170  56.6141760   9.6613590  15.2231670  56.8461790  10.0871130
  28.3710050  53.4306720  11.2071630  29.2480230  53.4390120  11.5905630
  28.3830890  52.6937560  10.5963980  29.8173320  57.2836260   2.0959650
  30.3410800  56.7898910   1.4649820  30.4032740  57.4186620   2.8407220
  29.9963040  57.3676130   5.6179200  29.0465750  57.3339670   5.7324190
  30.1776050  58.2776240   5.3828970  15.1873830  50.9223330   3.6703100
  15.8350020  50.3720710   3.2298260  15.6075670  51.1766480   4.4918910
  29.0826170  51.1164690   7.0272740  29.7198390  51.7298830   7.3931930
  29.2301060  51.1525350   6.0821970  14.9405830  51.0779000   6.4128420
  14.5920650  51.5342820   7.1786600  14.6093530  50.1836130   6.4950850
  16.5470200  64.2498600  10.5781610  16.5039830  63.8791510  11.4596070
  16.6781210  65.1876170  10.7183430  20.2476230  65.8058190   6.1791330
  20.0067590  66.0732750   5.2921850  21.1878870  65.9763920   6.2342190
  22.4530650  52.2690880   9.9347840  22.3919540  52.8612710  10.6843250
  23.3931030  52.1616840   9.7898100  25.0905210  51.9260940   9.5740130
  25.7045620  52.2440230   8.9121210  25.6354770  51.4409530  10.1935990
  31.5080390  67.8252570   6.9801970  31.0138670  68.2221440   6.2629100
  30.8993680  67.2001780   7.3739250  15.6126470  50.6055200   9.6879190
  16.1609460  50.4243250   8.9245300  15.6781780  49.8149310  10.2235500
  16.3858230  67.1960850   7.6979390  15.7918550  67.0645550   8.4369430
  16.3782070  66.3598990   7.2321490  25.8313250  50.4893080   5.9009420
  24.9573090  50.8228190   5.6982350  25.7224000  50.0166260   6.7261290
  26.7385230  52.6963950   7.2851140  26.4098590  51.8815710   6.9052870
  27.6867530  52.6533760   7.1616830  29.1919840  68.4675990   4.2588710
  28.7322810  69.2191800   3.8846730  28.5632300  67.7482460   4.2003510
  16.0170460  64.5619230   6.6487430  15.2904520  63.9424520   6.5813380
  16.0779610  64.9559840   5.7785510  19.6215560  66.7764230   3.4336840
  20.1380580  66.1651590   2.9085100  20.2712940  67.2793010   3.9247850
  22.3611060  67.6672720   4.2605820  22.6488870  67.4127020   3.3838830
  22.8734280  67.1150080   4.8511390  23.5788070  51.4062920   4.8402330
  22.7959860  51.8808420   5.1199090  23.2851000  50.5017750   4.7315510
  28.1309140  52.1086020   2.8851420  28.5717230  52.0531120   2.0373020
  27.8616730  53.0244030   2.9561600  22.4283420  68.5888820  11.6274020
  23.3550730  68.3533090  11.6709980  22.4133850  69.4160820  11.1460050
  19.6147030  51.2533570  11.3915900  19.3331300  51.7567170  10.6276720
  19.9966730  50.4555320  11.0258030  26.2162490  50.6687150  11.9696370
  26.1027940  50.9881760  12.8647890  27.0332230  51.0699660  11.6733650
  28.9960980  67.8158680  11.4515060  29.7886300  67.3207910  11.2441020
  29.2894130  68.4948820  12.0590670  25.1220640  39.9136130  57.4305070
  25.0414690  38.9990740  57.1596780  24.7085060  40.4103200  56.7244780
  23.2538680  41.6915150  59.3114340  22.4780780  41.2115590  59.6012910
  23.9051610  41.0120800  59.1370500  27.2746110  46.0975340  58.0913470
  26.8127640  45.3262580  58.4200640  28.0871660  46.1241410  58.5965920
  15.6796460  36.9636850  53.9732490  14.7913160  37.3052820  53.8712370
  15.9637650  36.7637170  53.0813320  13.6429470  39.5642500  59.8572190
  14.2145580  38.7964700  59.8575830  13.6431010  39.8631260  58.9478800
  23.5009420  48.3833350  57.7117460  22.8820860  48.8390850  57.1411900
  24.3561200  48.5384810  57.3107160  22.6947670  44.3672340  59.3184500
  22.6255950  43.4262280  59.1573630  23.4567530  44.4573750  59.8907070
  23.7252840  37.1742720  59.5453430  24.1017660  36.3014600  59.4327100
  23.6272350  37.5101420  58.6543870  17.8557850  35.5468350  55.0070870
  17.9624600  36.4472080  55.3139630  16.9450210  35.4986320  54.7165520
  27.5076960  34.6693160  56.4781770  28.3286580  34.1789730  56.5207250
  27.5411040  35.2590820  57.2313610  19.6965580  38.5154720  59.3396050
  20.2043800  39.0135690  59.9801070  20.2278820  37.7389920  59.1635410
  24.3672770  43.2672590  55.1049370  23.7490040  43.7322040  54.5412090
  24.8796020  43.9600070  55.5218880  27.7438440  36.6093540  59.2509310
  27.0394010  36.8978430  59.8312420  28.1050600  37.4193650  58.8908870
  13.7355970  43.9529120  52.4789000  13.3583950  44.4416220  51.7473900
  13.9929040  44.6254400  53.1095530  30.8125360  36.0548330  59.6418520
  29.8650270  36.0887310  59.7733950  31.1375350  36.8687280  60.0267880
  21.3444900  32.3545510  57.9374510  21.6519880  31.7992400  57.2210010
  20.4145600  32.4889970  57.7547500  26.8959960  48.0712800  60.2281970
  26.9087120  47.6675090  59.3604230  26.3435180  48.8460090  60.1243400
  28.1905380  44.7929020  55.3172140  28.0801710  43.8503350  55.4421560
  28.1873630  45.1544660  56.2034900  23.7325660  40.4194340  54.6734630
  22.8054940  40.3531720  54.9023100  23.8850480  41.3574470  54.5589870
  23.7194740  36.6911340  51.6701790  22.7798410  36.8525300  51.7554250
  24.0378000  37.4097020  51.1237780  27.7622950  41.9814640  55.1769880
  27.1435370  41.6434190  54.5296180  27.7447400  41.3374400  55.8849070
  19.3382300  40.9459080  57.4554360  18.9339300  40.2336330  56.9600260
  19.4245420  40.6012320  58.3442400  19.8064000  44.6326640  59.6193570
  19.5092290  44.0272110  58.9401350  20.7563820  44.6703950  59.5082930
  25.9387650  41.2201450  52.1842630  26.3780930  40.3823880  52.0380450
  26.6516070  41.8530850  52.2706770  24.0483030  46.1597520  56.1523870
  24.4878940  46.9021850  55.7379260  23.9869920  46.4024090  57.0762830
  29.5204790  32.4744260  50.4983670  29.2077450  32.5671090  51.3982740
  30.2817260  33.0525290  50.4481100  16.0386930  39.8404060  54.9561010
  15.9184530  40.5666150  54.3442280  15.7287820  39.0706970  54.4788920
  14.9219930  44.7119390  57.1735830  14.5148010  44.8533980  56.3189430
  15.8132940  44.4279550  56.9707040  26.7153210  49.1466640  53.5086880
  26.5554350  48.8569580  54.4068710  26.5499920  48.3706770  52.9732110
  19.1941590  48.9265170  55.2858500  19.0184070  48.0100710  55.0726300
  18.3397330  49.2852460  55.5256300  26.4179340  46.6554200  52.0684880
  25.7244500  46.6531490  51.4087160  27.1602200  46.2313520  51.6379050
  25.9829270  48.2816910  56.1433370  26.4386220  47.5006290  56.4571990
  26.3221790  48.9923730  56.6874550  18.5050590  33.1839130  58.3384680
  18.0618740  33.9648670  58.0069200  19.0635580  33.5069020  59.0455620
  21.6209410  32.8049830  53.2190510  20.9963590  32.8009700  53.9443820
  21.5339530  31.9380790  52.8226480  20.5426490  33.7286460  60.1974280
  20.8398820  34.6349290  60.1166300  21.0912050  33.2405240  59.5833850
  18.2964810  38.3072700  56.0665930  18.0705730  38.0909870  56.9712550
  17.5157340  38.7401160  55.7211900  25.5262570  38.3136070  54.6656580
  24.9271460  39.0371870  54.4820200  26.0742180  38.2512850  53.8833030
  24.1327440  36.9499610  56.6959860  24.5257010  37.2671810  55.8828550
  24.4944290  36.0711490  56.8104380  13.1691610  33.5400410  58.9190060
  12.8804660  34.1103270  59.6315040  13.9137370  33.0604860  59.2821290
  13.3561840  37.4820530  50.1292780  13.2736510  38.4251290  50.2707770
  13.0044900  37.3395440  49.2505130  21.1559970  36.2159560  59.1963130
  21.1596030  35.7749510  58.3467670  22.0511090  36.5376890  59.3034950
  17.0062350  36.0986050  58.1557340  16.6662400  36.5761280  58.9124390
  16.2439670  35.6451170  57.7958440  21.2180120  37.2171640  52.1869890
  21.3392940  37.1758120  53.1355710  20.8328630  38.0795790  52.0316620
  20.2301620  39.5272780  51.5853190  19.6618520  39.0791030  50.9589100
  20.9390620  39.8865560  51.0518340  14.3208430  35.0205030  57.0722010
  14.0355350  34.6560700  57.9100630  14.2587290  34.2885490  56.4585150
  17.7749100  43.5230970  53.8579600  17.0011360  42.9828590  53.6978320
  18.5043730  43.0037580  53.5197360  28.5337080  42.5196330  59.6505990
  29.2536200  43.0151620  59.2602100  28.3318900  41.8414220  59.0059860
  23.9947020  33.9134290  53.7935380  23.1811630  33.4147460  53.7180690
  23.8008970  34.7532540  53.3771730  26.7095410  38.2853940  52.0897540
  27.5975030  38.5971170  51.9148880  26.6800500  37.4126190  51.6978120
  17.8186500  43.1911350  57.4958410  18.3365170  42.3879610  57.4415300
  17.3670520  43.1290490  58.3375240  22.7056000  44.4577630  52.7685710
  23.0471700  45.2019860  52.2729030  21.8768710  44.7708750  53.1310540
  28.9809680  39.5965780  51.5577400  28.8973400  40.0280000  50.7073840
  29.7003870  40.0564130  51.9904220  30.0096930  46.4508040  54.2859530
  29.3673090  45.7963660  54.5603250  29.6227590  46.8563130  53.5100200
  25.5883410  43.7793470  58.1331220  25.9407230  43.1821600  57.4732590
  24.7045740  43.4537700  58.3039470  21.6746690  44.5391160  55.5401630
  22.3617820  45.0860370  55.9209220  20.8879110  45.0831890  55.5751240
  13.8139090  40.1563980  51.0318710  14.6833940  40.4388780  51.3154630
  13.3229410  40.9699850  50.9167520  20.9773900  41.5437190  55.1526990
  21.4336680  42.3542440  55.3787180  20.6262110  41.2260330  55.9845480
  16.8785680  31.8874840  55.6249510  16.7500310  31.8792740  56.5734430
  16.0547700  32.2257930  55.2740520  28.3994310  45.3424500  50.8235880
  28.1731890  44.6254940  51.4160520  28.0090510  45.0936940  49.9857630
  14.1810340  49.3691360  51.5980340  14.5407980  49.9680700  50.9437610
  14.0402680  49.9151250  52.3715370  27.9810560  43.2596440  52.4850040
  27.6932260  43.7209130  53.2727920  28.7762730  42.7994210  52.7534260
  20.1978960  46.7522560  52.4154010  20.1889060  47.4852250  51.7998520
  19.2777320  46.5054140  52.5080970  15.7985600  41.9737450  53.1600770
  15.1913550  42.7136350  53.1696070  16.2734950  42.0636810  52.3338970
  28.7380420  35.0945210  53.6445220  28.1093580  35.1990880  52.9303450
  28.2432340  35.3141990  54.4339100  23.1838560  46.8150800  51.0779200
  23.2850540  46.6114790  50.1481180  22.2840300  46.5609080  51.2826980
  20.7064450  37.3731160  55.0603100  19.9980600  37.8417500  55.5016710
  20.9908930  36.7153170  55.6948290  24.7379880  34.0981820  56.4998890
  24.6147660  34.1167950  55.5508400  25.6864440  34.1460760  56.6197290
  21.8256670  49.3337120  55.7726870  22.0798170  49.2958510  54.8506240
  20.8769150  49.2070450  55.7655120  18.9099470  35.6816240  52.4353810
  19.7590000  36.1186390  52.3694000  18.5430740  35.9936500  53.2625870
  27.8309250  40.2529000  57.3485380  26.8899390  40.2679230  57.5233070
  28.1453320  39.4664960  57.7945680  17.8090890  41.9348600  50.9089340
  18.5754160  41.8229960  51.4714770  17.8865580  41.2386570  50.2566110
  16.5037650  39.3673670  51.5922230  16.5841240  38.4201180  51.7039630
  17.3957400  39.6980550  51.6982890  29.8334830  47.4237850  59.0239640
  29.9582250  48.2469020  59.4963450  30.7000390  47.2128580  58.6763790
  17.3052360  49.5169060  58.6956770  18.0414840  48.9684520  58.9665340
  17.6893280  50.3825070  58.5562760  14.1897840  45.5842630  54.5698280
  13.2637620  45.8263770  54.5603690  14.6554270  46.4116890  54.4483030
  20.4154670  48.6899370  50.5182340  21.2083280  48.9788200  50.0664130
  19.8959020  48.2591540  49.8394820  29.4684840  47.9169500  51.9419080
  29.1826350  47.5034640  51.1273260  29.2704390  48.8457210  51.8219600
  20.9332070  43.9102780  50.3824690  20.8282710  43.2955130  51.1086070
  20.7656290  43.3868670  49.5987700  24.1734800  42.9722810  50.9866680
  23.6244900  43.4192110  51.6309420  24.7954060  42.4672060  51.5104350
  19.8409920  41.9313730  52.8831980  20.2626340  41.7653600  53.7263370
  19.9660760  41.1213960  52.3887120  22.3537560  40.9551340  50.1309080
  22.8743220  40.2400360  49.7650230  23.0005960  41.5937210  50.4309590
  18.7368820  38.0046960  49.8290140  18.5357880  37.1414320  50.1903480
  18.5660870  37.9180320  48.8911740  26.2157130  32.8155190  52.3577020
  26.4959420  31.9723090  52.7136440  25.4422860  33.0478300  52.8715770
  17.5351620  35.1047580  49.8168020  17.8377520  35.1115010  48.9087170
  18.2746210  34.7545440  50.3135680  20.7536550  34.0482200  50.8024220
  20.4058550  33.3706190  50.2226670  20.9549320  33.5871710  51.6167610
  22.9185590  49.0362950  52.4210820  23.8136380  49.3747920  52.4429580
  22.9503220  48.3142360  51.7935100  16.5581750  44.4090000  50.6497820
  16.9956620  44.9519670  51.3055400  17.0429480  43.5836950  50.6594160
  13.7727550  47.1979030  58.1018080  14.1030560  46.3300090  57.8696720
  14.2018550  47.4037550  58.9323040  18.3689470  45.5288040  55.7620050
  18.0685010  45.4053010  56.6623960  18.2626960  44.6696630  55.3535780
  31.1381390  45.3084440  50.4646730  30.3074350  45.3761090  50.9353960
  31.3153220  46.1988560  50.1613590  30.5937850  42.0531920  52.9680930
  31.3556760  42.6228570  53.0740620  30.6092220  41.4859120  53.7389240
  14.0942190  40.5769850  57.1988590  13.4391030  40.3081490  56.5548290
  14.9320140  40.4674330  56.7490570  31.5997820  42.9082020  57.8122860
  31.9706650  42.1249340  57.4058830  32.2399750  43.5971120  57.6340160
  30.6457020  42.3466290  50.1253450  30.9205860  43.2545170  49.9972670
  30.4567760  42.2828820  51.0615440  27.0432630  35.3711140  51.4207080
  27.4617510  35.1842120  50.5803740  26.7368690  34.5190190  51.7310010
  30.5422360  40.2835280  55.1182880  30.1665960  39.5163210  54.6864170
  29.8125480  40.6657980  55.6057810  13.3080270  37.7868780  53.1413920
  12.4044350  38.0498980  52.9665580  13.7920890  38.0579950  52.3613880
  29.8173320  38.5092770  58.4190120  30.3410800  38.0155420  57.7880290
  30.4032740  38.6443130  59.1637690  15.8507480  36.8434320  51.0508300
  16.5599180  36.4217540  50.5655580  15.1347420  36.9109550  50.4191650
  15.4981640  32.8973650  50.0910950  16.2209770  33.4382590  50.4092170
  15.7706160  32.6237070  49.2152490  29.3073290  37.7666120  54.3582530
  29.8032410  37.5336990  55.1431410  29.1089360  36.9277960  53.9420170
  30.7360450  36.4027070  56.8920210  30.6259730  36.2483110  57.8302480
  31.4968040  35.8748010  56.6495620  31.6250720  34.2334990  50.1326350
  32.5500030  34.1016170  49.9244640  31.6026510  34.3127810  51.0862800
  31.6989210  35.0045650  52.7583060  30.9040710  34.9390770  53.2875970
  31.9032490  35.9396290  52.7468410  28.6407630  49.0437200  56.7521450
  29.2366700  48.7221770  56.0755870  28.8985780  48.5709020  57.5434720
  19.6215560  48.0020740  59.7567310  20.1380580  47.3908100  59.2315570
  20.2712940  48.5049520  60.2478320  28.1309140  33.3342530  59.2081890
  28.5717230  33.2787630  58.3603490  27.8616730  34.2500540  59.2792070
  29.9947710  32.9657770  57.2190710  29.9336110  32.0218990  57.0721730
  30.7739740  33.0737860  57.7644170  14.3000460  49.1050130  56.1814660
  14.1322500  48.4720810  56.8796550  13.4334970  49.3109530  55.8308850
  14.9228480  32.9366910  53.6846520  15.6807840  33.0495790  53.1110550
  14.4605650  33.7736110  53.6389950  21.4642290  35.0506180  56.6748830
  20.6516800  34.6763070  56.3344710  21.9683930  34.2951260  56.9770020
  25.9667270  31.7148630  57.9131900  26.5696640  32.2868840  58.3880420
  25.2260260  32.2788070  57.6905800  29.1101870  32.1170190  53.1872180
  29.3052500  33.0153640  53.4539610  28.3231740  31.8857270  53.6805130
  15.9063160  47.7983360  53.6264800  15.3810780  48.1791390  52.9226760
  15.8307740  48.4234130  54.3474510  17.2953630  33.4630960  52.2248490
  17.8246390  32.6760760  52.0956440  17.9281950  34.1422150  52.4584020
  19.4891470  33.2006100  55.2793880  18.8594210  32.4993410  55.4464010
  18.9496610  33.9610230  55.0627040  30.6628480  49.3570900  54.9478740
  30.8380670  48.6708640  54.3039660  29.9650050  49.8817950  54.5555410
  18.5056130  49.7465740  52.5014050  19.2374950  49.4625020  51.9537940
  18.7649800  49.5079020  53.3913430  17.6670920  45.8630470  52.5060380
  17.0379800  46.3315570  53.0546210  17.7818750  45.0179690  52.9406570
  17.2704510  42.0034960  41.4146610  16.4389390  41.7483670  41.8143120
  17.8785490  42.0745730  42.1504530  27.2746110  46.0975340  39.3169980
  26.8127640  45.3262580  39.6457150  28.0871660  46.1241410  39.8222430
  17.2505770  46.0375050  41.6104630  17.5533810  45.1472790  41.4314850
  17.9949360  46.5945270  41.3826880  15.6796460  36.9636850  35.1989000
  14.7913160  37.3052820  35.0968880  15.9637650  36.7637170  34.3069830
  13.6429470  39.5642500  41.0828700  14.2145580  38.7964700  41.0832340
  13.6431010  39.8631260  40.1735310  23.5009420  48.3833350  38.9373970
  22.8820860  48.8390850  38.3668410  24.3561200  48.5384810  38.5363670
  22.6947670  44.3672340  40.5441010  22.6255950  43.4262280  40.3830140
  23.4567530  44.4573750  41.1163580  14.8854340  34.9726860  42.8697630
  14.7057180  34.0752610  43.1500390  14.4834420  35.5198730  43.5444580
  17.8557850  35.5468350  36.2327380  17.9624600  36.4472080  36.5396140
  16.9450210  35.4986320  35.9422030  15.5041010  37.4687360  41.4779970
  16.1851120  37.7325730  42.0967370  15.1889060  36.6288230  41.8117980
  17.9801680  33.1553280  44.8315980  17.9820120  33.6725670  44.0261880
  17.1505990  32.6783460  44.8085910  24.3672770  43.2672590  36.3305880
  23.7490040  43.7322040  35.7668600  24.8796020  43.9600070  36.7475390
  19.2304530  42.7948460  43.0089480  18.8973910  43.4217380  43.6510550
  19.4071210  43.3210340  42.2291150  17.6617010  34.8663240  42.8386430
  18.0033820  35.7105290  42.5440300  16.7232820  35.0146980  42.9551770
  18.4423630  44.7629260  44.8238660  19.0597630  45.4380340  44.5423110
  17.5816750  45.1717240  44.7326160  13.7355970  43.9529120  33.7045510
  13.3583950  44.4416220  32.9730410  13.9929040  44.6254400  34.3352040
  23.7325660  40.4194340  35.8991140  22.8054940  40.3531720  36.1279610
  23.8850480  41.3574470  35.7846380  23.7194740  36.6911340  32.8958300
  22.7798410  36.8525300  32.9810760  24.0378000  37.4097020  32.3494290
  27.2049510  38.1599180  43.8192200  26.7920690  38.9852890  44.0732190
  26.4725460  37.5744220  43.6268560  19.8064000  44.6326640  40.8450080
  19.5092290  44.0272110  40.1657860  20.7563820  44.6703950  40.7339440
  18.0510920  37.7202290  42.4609910  18.6025510  37.8297630  41.6863160
  18.5654430  38.0939890  43.1765140  18.8982430  44.3708330  47.4957880
  18.0010960  44.5948300  47.7431280  18.9235300  44.4943270  46.5469280
  25.9387650  41.2201450  33.4099140  26.3780930  40.3823880  33.2636960
  26.6516070  41.8530850  33.4963280  17.7253650  41.2421650  46.0715250
  17.5861420  42.1144450  46.4402650  16.8435010  40.8994460  45.9263190
  24.0483030  46.1597520  37.3780380  24.4878940  46.9021850  36.9635770
  23.9869920  46.4024090  38.3019340  19.5234000  47.1843350  48.2800400
  19.4949430  47.5886300  47.4128830  19.3598970  46.2553710  48.1172000
  29.5204790  32.4744260  31.7240180  29.2077450  32.5671090  32.6239250
  30.2817260  33.0525290  31.6737610  16.0386930  39.8404060  36.1817520
  15.9184530  40.5666150  35.5698790  15.7287820  39.0706970  35.7045430
  31.4748820  47.9670450  49.5764570  31.9508540  48.4453340  50.2553650
  32.0955980  47.8987940  48.8510070  13.6772300  43.0119200  41.9886160
  13.7552720  43.1467970  41.0441880  14.2913980  42.3035090  42.1814280
  14.9219930  44.7119390  38.3992340  14.5148010  44.8533980  37.5445940
  15.8132940  44.4279550  38.1963550  26.7153210  49.1466640  34.7343390
  26.5554350  48.8569580  35.6325220  26.5499920  48.3706770  34.1988620
  19.1941590  48.9265170  36.5115010  19.0184070  48.0100710  36.2982810
  18.3397330  49.2852460  36.7512810  26.4179340  46.6554200  33.2941390
  25.7244500  46.6531490  32.6343670  27.1602200  46.2313520  32.8635560
  25.9829270  48.2816910  37.3689880  26.4386220  47.5006290  37.6828500
  26.3221790  48.9923730  37.9131060  13.7331820  44.0533370  44.5280620
  13.8962860  43.5838730  43.7099990  14.1984270  43.5456930  45.1929460
  18.5050590  33.1839130  39.5641190  18.0618740  33.9648670  39.2325710
  19.0635580  33.5069020  40.2712130  27.7924910  37.2716600  46.2973170
  26.9418500  36.9722350  46.6182240  27.6326700  37.5158610  45.3856990
  24.8874620  38.7718350  48.3971960  25.2128030  37.9382100  48.0574190
  25.6754950  39.2946870  48.5450290  21.6209410  32.8049830  34.4447020
  20.9963590  32.8009700  35.1700330  21.5339530  31.9380790  34.0482990
  20.7364020  39.2058280  47.9582710  20.6407620  38.2653010  47.8083110
  21.5796000  39.4273350  47.5630780  15.8674560  35.6171950  46.1116490
  15.4737950  36.4647160  46.3189270  15.1792960  34.9798320  46.3025130
  22.4419610  35.7006920  49.1813230  21.7517930  35.5079120  49.8159320
  23.1851910  35.9841560  49.7137530  13.1691610  33.5400410  40.1446570
  12.8804660  34.1103270  40.8571550  13.9137370  33.0604860  40.5077800
  13.3561840  37.4820530  31.3549290  13.2736510  38.4251290  31.4964280
  13.0044900  37.3395440  30.4761640  17.0062350  36.0986050  39.3813850
  16.6662400  36.5761280  40.1380900  16.2439670  35.6451170  39.0214950
  21.2180120  37.2171640  33.4126400  21.3392940  37.1758120  34.3612220
  20.8328630  38.0795790  33.2573130  20.2301620  39.5272780  32.8109700
  19.6618520  39.0791030  32.1845610  20.9390620  39.8865560  32.2774850
  28.6079240  32.4071220  47.2676470  28.9325010  31.6760880  47.7934450
  28.6435750  32.0884860  46.3657460  15.3070800  43.4284800  46.6876430
  14.9225590  42.7878470  47.2859390  15.6182990  44.1320920  47.2571160
  14.3208430  35.0205030  38.2978520  14.0355350  34.6560700  39.1357140
  14.2587290  34.2885490  37.6841660  19.2467310  39.3169980  44.4869260
  18.9424380  40.1961960  44.7119620  20.2013770  39.3769770  44.5226700
  17.7749100  43.5230970  35.0836110  17.0011360  42.9828590  34.9234830
  18.5043730  43.0037580  34.7453870  23.9947020  33.9134290  35.0191890
  23.1811630  33.4147460  34.9437200  23.8008970  34.7532540  34.6028240
  23.9155880  42.5905390  46.7631500  23.8493190  41.6701060  46.5089090
  23.2861020  42.6880830  47.4776140  26.7095410  38.2853940  33.3154050
  27.5975030  38.5971170  33.1405390  26.6800500  37.4126190  32.9234630
  17.8186500  43.1911350  38.7214920  18.3365170  42.3879610  38.6671810
  17.3670520  43.1290490  39.5631750  22.7056000  44.4577630  33.9942220
  23.0471700  45.2019860  33.4985540  21.8768710  44.7708750  34.3567050
  15.3031040  40.1572720  45.6340620  14.9445980  40.8226570  46.2213960
  15.0085600  39.3256270  46.0053240  18.5044160  40.6156960  48.5180170
  18.2044300  40.7614140  47.6207990  19.2755400  40.0562250  48.4253560
  28.9809680  39.5965780  32.7833910  28.8973400  40.0280000  31.9330350
  29.7003870  40.0564130  33.2160730  30.0096930  46.4508040  35.5116040
  29.3673090  45.7963660  35.7859760  29.6227590  46.8563130  34.7356710
  25.5883410  43.7793470  39.3587730  25.9407230  43.1821600  38.6989100
  24.7045740  43.4537700  39.5295980  21.6746690  44.5391160  36.7658140
  22.3617820  45.0860370  37.1465730  20.8879110  45.0831890  36.8007750
  13.8139090  40.1563980  32.2575220  14.6833940  40.4388780  32.5411140
  13.3229410  40.9699850  32.1424030  16.8785680  31.8874840  36.8506020
  16.7500310  31.8792740  37.7990940  16.0547700  32.2257930  36.4997030
  28.3994310  45.3424500  32.0492390  28.1731890  44.6254940  32.6417030
  28.0090510  45.0936940  31.2114140  14.1810340  49.3691360  32.8236850
  14.5407980  49.9680700  32.1694120  14.0402680  49.9151250  33.5971880
  13.8779610  33.6465960  46.3112720  13.1638130  33.8462880  46.9165330
  14.2974650  32.8705530  46.6827520  27.9810560  43.2596440  33.7106550
  27.6932260  43.7209130  34.4984430  28.7762730  42.7994210  33.9790770
  14.1652200  47.6346220  47.2979250  14.2743320  46.6940960  47.1574640
  13.5132760  47.9000970  46.6492980  22.1564790  45.9062110  48.6977370
  21.8361660  45.1871350  49.2423060  21.4823150  46.5817180  48.7713430
  20.1978960  46.7522560  33.6410520  20.1889060  47.4852250  33.0255030
  19.2777320  46.5054140  33.7337480  15.7985600  41.9737450  34.3857280
  15.1913550  42.7136350  34.3952580  16.2734950  42.0636810  33.5595480
  28.7380420  35.0945210  34.8701730  28.1093580  35.1990880  34.1559960
  28.2432340  35.3141990  35.6595610  23.1838560  46.8150800  32.3035710
  23.2850540  46.6114790  31.3737690  22.2840300  46.5609080  32.5083490
  20.7064450  37.3731160  36.2859610  19.9980600  37.8417500  36.7273220
  20.9908930  36.7153170  36.9204800  21.8256670  49.3337120  36.9983380
  22.0798170  49.2958510  36.0762750  20.8769150  49.2070450  36.9911630
  18.9099470  35.6816240  33.6610320  19.7590000  36.1186390  33.5950510
  18.5430740  35.9936500  34.4882380  29.5387240  35.0095820  45.1280530
  29.0360840  35.7501220  45.4674340  30.3543900  35.3979820  44.8117320
  17.8090890  41.9348600  32.1345850  18.5754160  41.8229960  32.6971280
  17.8865580  41.2386570  31.4822620  16.5037650  39.3673670  32.8178740
  16.5841240  38.4201180  32.9296140  17.3957400  39.6980550  32.9239400
  29.8334830  47.4237850  40.2496150  29.9582250  48.2469020  40.7219960
  30.7000390  47.2128580  39.9020300  17.3052360  49.5169060  39.9213280
  18.0414840  48.9684520  40.1921850  17.6893280  50.3825070  39.7819270
  14.1897840  45.5842630  35.7954790  13.2637620  45.8263770  35.7860200
  14.6554270  46.4116890  35.6739540  16.3110640  48.7015130  49.1098860
  17.1123370  49.0227180  49.5234260  15.7962460  48.3410710  49.8318770
  20.4154670  48.6899370  31.7438850  21.2083280  48.9788200  31.2920640
  19.8959020  48.2591540  31.0651330  25.1475270  44.8095000  49.0574270
  24.5413430  44.8326600  48.3170020  24.8429380  44.0778040  49.5941520
  29.4684840  47.9169500  33.1675590  29.1826350  47.5034640  32.3529770
  29.2704390  48.8457210  33.0476110  14.0308450  41.1888590  48.0534910
  14.5347470  40.6095870  48.6251140  13.2915870  41.4728820  48.5911280
  20.9332070  43.9102780  31.6081200  20.8282710  43.2955130  32.3342580
  20.7656290  43.3868670  30.8244210  21.0846390  42.5959580  47.5870430
  20.3192060  43.1644580  47.5025100  21.2662350  42.3035790  46.6938660
  24.1734800  42.9722810  32.2123190  23.6244900  43.4192110  32.8565930
  24.7954060  42.4672060  32.7360860  16.0631530  39.3318180  48.9484980
  16.1036870  39.0332050  49.8570210  16.9177030  39.7325790  48.7892500
  19.8409920  41.9313730  34.1088490  20.2626340  41.7653600  34.9519880
  19.9660760  41.1213960  33.6143630  18.0037340  37.9110280  46.9159470
  17.4733800  37.4201230  46.2882810  18.6725410  38.3394480  46.3817400
  22.3537560  40.9551340  31.3565590  22.8743220  40.2400360  30.9906740
  23.0005960  41.5937210  31.6566100  27.3737570  39.7175900  48.6839810
  27.9558340  38.9628220  48.5960290  27.5499340  40.2483340  47.9071290
  18.4909640  34.8772650  46.9956760  18.3966510  34.2593400  46.2707630
  17.9107030  35.6038940  46.7686670  21.6630630  42.3300220  44.6496590
  22.0818740  43.1732950  44.4772830  20.7439260  42.4672260  44.4203370
  23.9994530  40.0616400  46.0334430  24.1190740  39.4657540  46.7729270
  24.8588530  40.0986090  45.6135730  26.3382430  40.6153590  44.6096940
  25.8117650  41.1396210  44.0062080  26.6813770  41.2480980  45.2406670
  18.7368820  38.0046960  31.0546650  18.5357880  37.1414320  31.4159990
  18.5660870  37.9180320  30.1168250  19.5138050  48.6353230  45.7654320
  18.9759140  49.3599290  45.4463020  19.7672010  48.1583570  44.9751660
  20.7663300  36.6037750  47.2910250  21.3562990  36.2953600  47.9788070
  19.9483540  36.1317500  47.4470150  25.5856730  36.2203560  47.5243270
  24.8972250  35.5585100  47.4593260  26.3062750  35.7741830  47.9691730
  26.2157130  32.8155190  33.5833530  26.4959420  31.9723090  33.9392950
  25.4422860  33.0478300  34.0972280  17.5351620  35.1047580  31.0424530
  17.8377520  35.1115010  30.1343680  18.2746210  34.7545440  31.5392190
  20.7536550  34.0482200  32.0280730  20.4058550  33.3706190  31.4483180
  20.9549320  33.5871710  32.8424120  22.9185590  49.0362950  33.6467330
  23.8136380  49.3747920  33.6686090  22.9503220  48.3142360  33.0191610
  16.5581750  44.4090000  31.8754330  16.9956620  44.9519670  32.5311910
  17.0429480  43.5836950  31.8850670  13.7727550  47.1979030  39.3274590
  14.1030560  46.3300090  39.0953230  14.2018550  47.4037550  40.1579550
  18.3689470  45.5288040  36.9876560  18.0685010  45.4053010  37.8880470
  18.2626960  44.6696630  36.5792290  14.2617760  48.0649620  42.0656220
  13.8248750  48.2450420  42.8980370  14.8295440  48.8224240  41.9237940
  31.1381390  45.3084440  31.6903240  30.3074350  45.3761090  32.1610470
  31.3153220  46.1988560  31.3870100  30.5937850  42.0531920  34.1937440
  31.3556760  42.6228570  34.2997130  30.6092220  41.4859120  34.9645750
  14.0942190  40.5769850  38.4245100  13.4391030  40.3081490  37.7804800
  14.9320140  40.4674330  37.9747080  30.6457020  42.3466290  31.3509960
  30.9205860  43.2545170  31.2229180  30.4567760  42.2828820  32.2871950
  27.0432630  35.3711140  32.6463590  27.4617510  35.1842120  31.8060250
  26.7368690  34.5190190  32.9566520  15.1318120  40.9622420  42.9648440
  15.4991160  40.8749820  43.8444460  14.5628940  40.1988970  42.8655300
  14.6834120  37.8731510  46.8706860  13.7890170  37.8398270  47.2100570
  15.2231670  38.0718300  47.6358110  28.3710050  34.6563230  48.7558610
  29.2480230  34.6646630  49.1392610  28.3830890  33.9194070  48.1450960
  13.3080270  37.7868780  34.3670430  12.4044350  38.0498980  34.1922090
  13.7920890  38.0579950  33.5870390  15.8507480  36.8434320  32.2764810
  16.5599180  36.4217540  31.7912090  15.1347420  36.9109550  31.6448160
  15.4981640  32.8973650  31.3167460  16.2209770  33.4382590  31.6348680
  15.7706160  32.6237070  30.4409000  15.1873830  32.1479840  41.2190080
  15.8350020  31.5977220  40.7785240  15.6075670  32.4022990  42.0405890
  31.6250720  34.2334990  31.3582860  32.5500030  34.1016170  31.1501150
  31.6026510  34.3127810  32.3119310  31.6989210  35.0045650  33.9839570
  30.9040710  34.9390770  34.5132480  31.9032490  35.9396290  33.9724920
  28.6407630  49.0437200  37.9777960  29.2366700  48.7221770  37.3012380
  28.8985780  48.5709020  38.7691230  14.9405830  32.3035510  43.9615400
  14.5920650  32.7599330  44.7273580  14.6093530  31.4092640  44.0437830
  16.5470200  45.4755110  48.1268590  16.5039830  45.1048020  49.0083050
  16.6781210  46.4132680  48.2670410  20.2476230  47.0314700  43.7278310
  20.0067590  47.2989260  42.8408830  21.1878870  47.2020430  43.7829170
  22.4530650  33.4947390  47.4834820  22.3919540  34.0869220  48.2330230
  23.3931030  33.3873350  47.3385080  25.0905210  33.1517450  47.1227110
  25.7045620  33.4696740  46.4608190  25.6354770  32.6666040  47.7422970
  15.6126470  31.8311710  47.2366170  16.1609460  31.6499760  46.4732280
  15.6781780  31.0405820  47.7722480  16.3858230  48.4217360  45.2466370
  15.7918550  48.2902060  45.9856410  16.3782070  47.5855500  44.7808470
  16.0170460  45.7875740  44.1974410  15.2904520  45.1681030  44.1300360
  16.0779610  46.1816350  43.3272490  19.6215560  48.0020740  40.9823820
  20.1380580  47.3908100  40.4572080  20.2712940  48.5049520  41.4734830
  14.3000460  49.1050130  37.4071170  14.1322500  48.4720810  38.1053060
  13.4334970  49.3109530  37.0565360  14.9228480  32.9366910  34.9103030
  15.6807840  33.0495790  34.3367060  14.4605650  33.7736110  34.8646460
  29.1101870  32.1170190  34.4128690  29.3052500  33.0153640  34.6796120
  28.3231740  31.8857270  34.9061640  15.9063160  47.7983360  34.8521310
  15.3810780  48.1791390  34.1483270  15.8307740  48.4234130  35.5731020
  17.2953630  33.4630960  33.4505000  17.8246390  32.6760760  33.3212950
  17.9281950  34.1422150  33.6840530  19.4891470  33.2006100  36.5050390
  18.8594210  32.4993410  36.6720520  18.9496610  33.9610230  36.2883550
  22.4283420  49.8145330  49.1761000  23.3550730  49.5789600  49.2196960
  22.4133850  50.6417330  48.6947030  19.6147030  32.4790080  48.9402880
  19.3331300  32.9823680  48.1763700  19.9966730  31.6811830  48.5745010
  18.5056130  49.7465740  33.7270560  19.2374950  49.4625020  33.1794450
  18.7649800  49.5079020  34.6169940  17.6670920  45.8630470  33.7316890
  17.0379800  46.3315570  34.2802720  17.7818750  45.0179690  34.1663080
  26.2162490  31.8943660  49.5183350  26.1027940  32.2138270  50.4134870
  27.0332230  32.2956170  49.2220630  25.1220640  39.9136130  19.8818090
  25.0414690  38.9990740  19.6109800  24.7085060  40.4103200  19.1757800
  23.2538680  41.6915150  21.7627360  22.4780780  41.2115590  22.0525930
  23.9051610  41.0120800  21.5883520  17.2704510  42.0034960  22.6403120
  16.4389390  41.7483670  23.0399630  17.8785490  42.0745730  23.3761040
  27.2746110  46.0975340  20.5426490  26.8127640  45.3262580  20.8713660
  28.0871660  46.1241410  21.0478940  17.2505770  46.0375050  22.8361140
  17.5533810  45.1472790  22.6571360  17.9949360  46.5945270  22.6083390
  15.6796460  36.9636850  16.4245510  14.7913160  37.3052820  16.3225390
  15.9637650  36.7637170  15.5326340  13.6429470  39.5642500  22.3085210
  14.2145580  38.7964700  22.3088850  13.6431010  39.8631260  21.3991820
  23.5009420  48.3833350  20.1630480  22.8820860  48.8390850  19.5924920
  24.3561200  48.5384810  19.7620180  22.6947670  44.3672340  21.7697520
  22.6255950  43.4262280  21.6086650  23.4567530  44.4573750  22.3420090
  14.8854340  34.9726860  24.0954140  14.7057180  34.0752610  24.3756900
  14.4834420  35.5198730  24.7701090  23.7252840  37.1742720  21.9966450
  24.1017660  36.3014600  21.8840120  23.6272350  37.5101420  21.1056890
  17.8557850  35.5468350  17.4583890  17.9624600  36.4472080  17.7652650
  16.9450210  35.4986320  17.1678540  27.5076960  34.6693160  18.9294790
  28.3286580  34.1789730  18.9720270  27.5411040  35.2590820  19.6826630
  15.5041010  37.4687360  22.7036480  16.1851120  37.7325730  23.3223880
  15.1889060  36.6288230  23.0374490  19.6965580  38.5154720  21.7909070
  20.2043800  39.0135690  22.4314090  20.2278820  37.7389920  21.6148430
  31.7976510  36.6859910  25.4938420  31.0928680  37.0741620  24.9753530
  32.0634430  37.3810200  26.0959350  17.9801680  33.1553280  26.0572490
  17.9820120  33.6725670  25.2518390  17.1505990  32.6783460  26.0342420
  24.3672770  43.2672590  17.5562390  23.7490040  43.7322040  16.9925110
  24.8796020  43.9600070  17.9731900  19.2304530  42.7948460  24.2345990
  18.8973910  43.4217380  24.8767060  19.4071210  43.3210340  23.4547660
  27.7438440  36.6093540  21.7022330  27.0394010  36.8978430  22.2825440
  28.1050600  37.4193650  21.3421890  17.6617010  34.8663240  24.0642940
  18.0033820  35.7105290  23.7696810  16.7232820  35.0146980  24.1808280
  18.4423630  44.7629260  26.0495170  19.0597630  45.4380340  25.7679620
  17.5816750  45.1717240  25.9582670  13.7355970  43.9529120  14.9302020
  13.3583950  44.4416220  14.1986920  13.9929040  44.6254400  15.5608550
  29.3601220  46.2268670  23.9649810  28.6764740  46.8967780  23.9566480
  29.8995510  46.4249320  23.1994670  30.8125360  36.0548330  22.0931540
  29.8650270  36.0887310  22.2246970  31.1375350  36.8687280  22.4780900
  21.3444900  32.3545510  20.3887530  21.6519880  31.7992400  19.6723030
  20.4145600  32.4889970  20.2060520  26.8959960  48.0712800  22.6794990
  26.9087120  47.6675090  21.8117250  26.3435180  48.8460090  22.5756420
  28.1905380  44.7929020  17.7685160  28.0801710  43.8503350  17.8934580
  28.1873630  45.1544660  18.6547920  26.2945400  42.9742640  24.0077600
  26.7114190  42.7602750  23.1731060  27.0185220  43.2315430  24.5786220
  23.7325660  40.4194340  17.1247650  22.8054940  40.3531720  17.3536120
  23.8850480  41.3574470  17.0102890  23.7194740  36.6911340  14.1214810
  22.7798410  36.8525300  14.2067270  24.0378000  37.4097020  13.5750800
  30.2407500  41.3729860  24.0993840  29.4126130  41.4422950  23.6243970
  30.8357980  41.9584170  23.6309670  27.7622950  41.9814640  17.6282900
  27.1435370  41.6434190  16.9809200  27.7447400  41.3374400  18.3362090
  27.2049510  38.1599180  25.0448710  26.7920690  38.9852890  25.2988700
  26.4725460  37.5744220  24.8525070  19.3382300  40.9459080  19.9067380
  18.9339300  40.2336330  19.4113280  19.4245420  40.6012320  20.7955420
  19.8064000  44.6326640  22.0706590  19.5092290  44.0272110  21.3914370
  20.7563820  44.6703950  21.9595950  18.0510920  37.7202290  23.6866420
  18.6025510  37.8297630  22.9119670  18.5654430  38.0939890  24.4021650
  27.8949610  48.2058510  25.7329690  27.4180170  49.0130700  25.5402300
  27.2111400  47.5536840  25.8855900  18.8982430  44.3708330  28.7214390
  18.0010960  44.5948300  28.9687790  18.9235300  44.4943270  27.7725790
  25.9387650  41.2201450  14.6355650  26.3780930  40.3823880  14.4893470
  26.6516070  41.8530850  14.7219790  17.7253650  41.2421650  27.2971760
  17.5861420  42.1144450  27.6659160  16.8435010  40.8994460  27.1519700
  24.0483030  46.1597520  18.6036890  24.4878940  46.9021850  18.1892280
  23.9869920  46.4024090  19.5275850  19.5234000  47.1843350  29.5056910
  19.4949430  47.5886300  28.6385340  19.3598970  46.2553710  29.3428510
  29.5204790  32.4744260  12.9496690  29.2077450  32.5671090  13.8495760
  30.2817260  33.0525290  12.8994120  16.0386930  39.8404060  17.4074030
  15.9184530  40.5666150  16.7955300  15.7287820  39.0706970  16.9301940
  13.6772300  43.0119200  23.2142670  13.7552720  43.1467970  22.2698390
  14.2913980  42.3035090  23.4070790  14.9219930  44.7119390  19.6248850
  14.5148010  44.8533980  18.7702450  15.8132940  44.4279550  19.4220060
  30.8782070  45.1583300  27.9621090  31.0045130  44.9195180  27.0438270
  30.9203450  44.3267840  28.4343170  24.7398810  48.8611300  26.5315900
  25.2543480  48.7719310  27.3338330  23.8967890  49.2071000  26.8243810
  26.7153210  49.1466640  15.9599900  26.5554350  48.8569580  16.8581730
  26.5499920  48.3706770  15.4245130  19.1941590  48.9265170  17.7371520
  19.0184070  48.0100710  17.5239320  18.3397330  49.2852460  17.9769320
  26.4179340  46.6554200  14.5197900  25.7244500  46.6531490  13.8600180
  27.1602200  46.2313520  14.0892070  25.9829270  48.2816910  18.5946390
  26.4386220  47.5006290  18.9085010  26.3221790  48.9923730  19.1387570
  30.7306080  37.2115760  28.9270830  30.1150350  37.7195430  28.3986290
  30.4102500  36.3114090  28.8696770  13.7331820  44.0533370  25.7537130
  13.8962860  43.5838730  24.9356500  14.1984270  43.5456930  26.4185970
  18.5050590  33.1839130  20.7897700  18.0618740  33.9648670  20.4582220
  19.0635580  33.5069020  21.4968640  22.7920400  36.0507650  26.3933020
  22.3299770  36.2590670  27.2052960  22.3898510  35.2367000  26.0903690
  27.7924910  37.2716600  27.5229680  26.9418500  36.9722350  27.8438750
  27.6326700  37.5158610  26.6113500  24.8874620  38.7718350  29.6228470
  25.2128030  37.9382100  29.2830700  25.6754950  39.2946870  29.7706800
  21.6209410  32.8049830  15.6703530  20.9963590  32.8009700  16.3956840
  21.5339530  31.9380790  15.2739500  20.5426490  33.7286460  22.6487300
  20.8398820  34.6349290  22.5679320  21.0912050  33.2405240  22.0346870
  18.2964810  38.3072700  18.5178950  18.0705730  38.0909870  19.4225570
  17.5157340  38.7401160  18.1724920  25.5262570  38.3136070  17.1169600
  24.9271460  39.0371870  16.9333220  26.0742180  38.2512850  16.3346050
  20.7364020  39.2058280  29.1839220  20.6407620  38.2653010  29.0339620
  21.5796000  39.4273350  28.7887290  24.1327440  36.9499610  19.1472880
  24.5257010  37.2671810  18.3341570  24.4944290  36.0711490  19.2617400
  15.8674560  35.6171950  27.3373000  15.4737950  36.4647160  27.5445780
  15.1792960  34.9798320  27.5281640  22.4419610  35.7006920  30.4069740
  21.7517930  35.5079120  31.0415830  23.1851910  35.9841560  30.9394040
  13.1691610  33.5400410  21.3703080  12.8804660  34.1103270  22.0828060
  13.9137370  33.0604860  21.7334310  13.3561840  37.4820530  12.5805800
  13.2736510  38.4251290  12.7220790  13.0044900  37.3395440  11.7018150
  24.7182580  39.5405360  23.2423660  23.9863700  40.0492170  23.5913760
  24.3206920  38.7235340  22.9412440  21.1559970  36.2159560  21.6476150
  21.1596030  35.7749510  20.7980690  22.0511090  36.5376890  21.7547970
  17.0062350  36.0986050  20.6070360  16.6662400  36.5761280  21.3637410
  16.2439670  35.6451170  20.2471460  21.2180120  37.2171640  14.6382910
  21.3392940  37.1758120  15.5868730  20.8328630  38.0795790  14.4829640
  25.1808490  34.9939040  22.6546600  25.1981230  35.4447690  23.4988450
  24.9324070  34.0944680  22.8680040  20.2301620  39.5272780  14.0366210
  19.6618520  39.0791030  13.4102120  20.9390620  39.8865560  13.5031360
  28.6079240  32.4071220  28.4932980  28.9325010  31.6760880  29.0190960
  28.6435750  32.0884860  27.5913970  15.3070800  43.4284800  27.9132940
  14.9225590  42.7878470  28.5115900  15.6182990  44.1320920  28.4827670
  21.4567940  40.2761340  23.3941560  21.8238070  39.8019910  24.1402900
  21.2673000  41.1502910  23.7349900  14.3208430  35.0205030  19.5235030
  14.0355350  34.6560700  20.3613650  14.2587290  34.2885490  18.9098170
  19.2467310  39.3169980  25.7125770  18.9424380  40.1961960  25.9376130
  20.2013770  39.3769770  25.7483210  17.7749100  43.5230970  16.3092620
  17.0011360  42.9828590  16.1491340  18.5043730  43.0037580  15.9710380
  28.5337080  42.5196330  22.1019010  29.2536200  43.0151620  21.7115120
  28.3318900  41.8414220  21.4572880  23.9947020  33.9134290  16.2448400
  23.1811630  33.4147460  16.1693710  23.8008970  34.7532540  15.8284750
  23.9155880  42.5905390  27.9888010  23.8493190  41.6701060  27.7345600
  23.2861020  42.6880830  28.7032650  26.7095410  38.2853940  14.5410560
  27.5975030  38.5971170  14.3661900  26.6800500  37.4126190  14.1491140
  17.8186500  43.1911350  19.9471430  18.3365170  42.3879610  19.8928320
  17.3670520  43.1290490  20.7888260  22.7056000  44.4577630  15.2198730
  23.0471700  45.2019860  14.7242050  21.8768710  44.7708750  15.5823560
  15.3031040  40.1572720  26.8597130  14.9445980  40.8226570  27.4470470
  15.0085600  39.3256270  27.2309750  18.5044160  40.6156960  29.7436680
  18.2044300  40.7614140  28.8464500  19.2755400  40.0562250  29.6510070
  23.8472610  45.4125960  27.7391810  23.8617150  44.4806920  27.5210720
  23.1397710  45.4985720  28.3781580  28.9809680  39.5965780  14.0090420
  28.8973400  40.0280000  13.1586860  29.7003870  40.0564130  14.4417240
  30.0583820  42.0533300  27.0860390  29.3332010  42.6462080  26.8889780
  30.5859280  42.0456840  26.2873760  30.0096930  46.4508040  16.7372550
  29.3673090  45.7963660  17.0116270  29.6227590  46.8563130  15.9613220
  25.5883410  43.7793470  20.5844240  25.9407230  43.1821600  19.9245610
  24.7045740  43.4537700  20.7552490  21.6746690  44.5391160  17.9914650
  22.3617820  45.0860370  18.3722240  20.8879110  45.0831890  18.0264260
  13.8139090  40.1563980  13.4831730  14.6833940  40.4388780  13.7667650
  13.3229410  40.9699850  13.3680540  20.9773900  41.5437190  17.6040010
  21.4336680  42.3542440  17.8300200  20.6262110  41.2260330  18.4358500
  23.2806510  47.0543530  24.8332310  23.9248730  47.2602910  25.5105730
  23.6435950  46.2931930  24.3803160  16.8785680  31.8874840  18.0762530
  16.7500310  31.8792740  19.0247450  16.0547700  32.2257930  17.7253540
  24.5538590  45.0575880  23.5509760  25.1960820  44.3569040  23.6641930
  25.0787940  45.8374320  23.3706650  28.3994310  45.3424500  13.2748900
  28.1731890  44.6254940  13.8673540  28.0090510  45.0936940  12.4370650
  26.3276210  45.8570780  26.7545820  26.6632450  46.4437470  27.4323740
  25.4076550  45.7263490  26.9843610  14.1810340  49.3691360  14.0493360
  14.5407980  49.9680700  13.3950630  14.0402680  49.9151250  14.8228390
  13.8779610  33.6465960  27.5369230  13.1638130  33.8462880  28.1421840
  14.2974650  32.8705530  27.9084030  27.9810560  43.2596440  14.9363060
  27.6932260  43.7209130  15.7240940  28.7762730  42.7994210  15.2047280
  14.1652200  47.6346220  28.5235760  14.2743320  46.6940960  28.3831150
  13.5132760  47.9000970  27.8749490  22.1564790  45.9062110  29.9233880
  21.8361660  45.1871350  30.4679570  21.4823150  46.5817180  29.9969940
  20.1978960  46.7522560  14.8667030  20.1889060  47.4852250  14.2511540
  19.2777320  46.5054140  14.9593990  15.7985600  41.9737450  15.6113790
  15.1913550  42.7136350  15.6209090  16.2734950  42.0636810  14.7851990
  25.3718390  36.1388270  25.2870680  25.7399210  35.3183480  25.6150250
  24.5116590  36.1990160  25.7026330  28.7380420  35.0945210  16.0958240
  28.1093580  35.1990880  15.3816470  28.2432340  35.3141990  16.8852120
  23.1838560  46.8150800  13.5292220  23.2850540  46.6114790  12.5994200
  22.2840300  46.5609080  13.7340000  20.7064450  37.3731160  17.5116120
  19.9980600  37.8417500  17.9529730  20.9908930  36.7153170  18.1461310
  22.3320380  38.7927860  25.5108650  22.8305630  39.2673680  26.1760500
  22.4743330  37.8691380  25.7178680  24.7379880  34.0981820  18.9511910
  24.6147660  34.1167950  18.0021420  25.6864440  34.1460760  19.0710310
  21.8256670  49.3337120  18.2239890  22.0798170  49.2958510  17.3019260
  20.8769150  49.2070450  18.2168140  18.9099470  35.6816240  14.8866830
  19.7590000  36.1186390  14.8207020  18.5430740  35.9936500  15.7138890
  29.5387240  35.0095820  26.3537040  29.0360840  35.7501220  26.6930850
  30.3543900  35.3979820  26.0373830  27.8309250  40.2529000  19.7998400
  26.8899390  40.2679230  19.9746090  28.1453320  39.4664960  20.2458700
  17.8090890  41.9348600  13.3602360  18.5754160  41.8229960  13.9227790
  17.8865580  41.2386570  12.7079130  16.5037650  39.3673670  14.0435250
  16.5841240  38.4201180  14.1552650  17.3957400  39.6980550  14.1495910
  29.8334830  47.4237850  21.4752660  29.9582250  48.2469020  21.9476470
  30.7000390  47.2128580  21.1276810  17.3052360  49.5169060  21.1469790
  18.0414840  48.9684520  21.4178360  17.6893280  50.3825070  21.0075780
  14.1897840  45.5842630  17.0211300  13.2637620  45.8263770  17.0116710
  14.6554270  46.4116890  16.8996050  16.3110640  48.7015130  30.3355370
  17.1123370  49.0227180  30.7490770  15.7962460  48.3410710  31.0575280
  20.4154670  48.6899370  12.9695360  21.2083280  48.9788200  12.5177150
  19.8959020  48.2591540  12.2907840  25.1475270  44.8095000  30.2830780
  24.5413430  44.8326600  29.5426530  24.8429380  44.0778040  30.8198030
  26.5775640  48.5375290  28.8940190  27.5297390  48.4533310  28.8440430
  26.4303860  49.2017000  29.5673980  29.4684840  47.9169500  14.3932100
  29.1826350  47.5034640  13.5786280  29.2704390  48.8457210  14.2732620
  14.0308450  41.1888590  29.2791420  14.5347470  40.6095870  29.8507650
  13.2915870  41.4728820  29.8167790  20.9332070  43.9102780  12.8337710
  20.8282710  43.2955130  13.5599090  20.7656290  43.3868670  12.0500720
  21.0846390  42.5959580  28.8126940  20.3192060  43.1644580  28.7281610
  21.2662350  42.3035790  27.9195170  24.1734800  42.9722810  13.4379700
  23.6244900  43.4192110  14.0822440  24.7954060  42.4672060  13.9617370
  28.2269740  44.3264910  29.3701960  28.9679210  44.6640670  28.8669420
  27.4642420  44.4956970  28.8171730  16.0631530  39.3318180  30.1741490
  16.1036870  39.0332050  31.0826720  16.9177030  39.7325790  30.0149010
  19.8409920  41.9313730  15.3345000  20.2626340  41.7653600  16.1776390
  19.9660760  41.1213960  14.8400140  18.0037340  37.9110280  28.1415980
  17.4733800  37.4201230  27.5139320  18.6725410  38.3394480  27.6073910
  22.3537560  40.9551340  12.5822100  22.8743220  40.2400360  12.2163250
  23.0005960  41.5937210  12.8822610  26.9015400  42.3779740  27.9057170
  27.3156420  42.5324820  28.7547590  25.9666400  42.5034960  28.0682950
  27.3737570  39.7175900  29.9096320  27.9558340  38.9628220  29.8216800
  27.5499340  40.2483340  29.1327800  18.4909640  34.8772650  28.2213270
  18.3966510  34.2593400  27.4964140  17.9107030  35.6038940  27.9943180
  21.2571080  33.4345890  25.2540660  20.8088380  33.4570150  24.4086210
  20.6236280  33.0364910  25.8510960  21.6630630  42.3300220  25.8753100
  22.0818740  43.1732950  25.7029340  20.7439260  42.4672260  25.6459880
  23.9994530  40.0616400  27.2590940  24.1190740  39.4657540  27.9985780
  24.8588530  40.0986090  26.8392240  26.3382430  40.6153590  25.8353450
  25.8117650  41.1396210  25.2318590  26.6813770  41.2480980  26.4663180
  18.7368820  38.0046960  12.2803160  18.5357880  37.1414320  12.6416500
  18.5660870  37.9180320  11.3424760  19.5138050  48.6353230  26.9910830
  18.9759140  49.3599290  26.6719530  19.7672010  48.1583570  26.2008170
  20.7663300  36.6037750  28.5166760  21.3562990  36.2953600  29.2044580
  19.9483540  36.1317500  28.6726660  25.5856730  36.2203560  28.7499780
  24.8972250  35.5585100  28.6849770  26.3062750  35.7741830  29.1948240
  26.2157130  32.8155190  14.8090040  26.4959420  31.9723090  15.1649460
  25.4422860  33.0478300  15.3228790  17.5351620  35.1047580  12.2681040
  17.8377520  35.1115010  11.3600190  18.2746210  34.7545440  12.7648700
  22.3700260  49.8704440  27.2497480  22.2958960  50.7739580  27.5569850
  21.4679100  49.5516340  27.2219550  20.7536550  34.0482200  13.2537240
  20.4058550  33.3706190  12.6739690  20.9549320  33.5871710  14.0680630
  22.9185590  49.0362950  14.8723840  23.8136380  49.3747920  14.8942600
  22.9503220  48.3142360  14.2448120  16.5581750  44.4090000  13.1010840
  16.9956620  44.9519670  13.7568420  17.0429480  43.5836950  13.1107180
  13.7727550  47.1979030  20.5531100  14.1030560  46.3300090  20.3209740
  14.2018550  47.4037550  21.3836060  18.3689470  45.5288040  18.2133070
  18.0685010  45.4053010  19.1136980  18.2626960  44.6696630  17.8048800
  14.2617760  48.0649620  23.2912730  13.8248750  48.2450420  24.1236880
  14.8295440  48.8224240  23.1494450  29.8979940  47.5666620  27.5790040
  29.2981930  47.6259180  26.8353960  30.0273840  46.6271600  27.7086890
  31.1381390  45.3084440  12.9159750  30.3074350  45.3761090  13.3866980
  31.3153220  46.1988560  12.6126610  30.5937850  42.0531920  15.4193950
  31.3556760  42.6228570  15.5253640  30.6092220  41.4859120  16.1902260
  14.0942190  40.5769850  19.6501610  13.4391030  40.3081490  19.0061310
  14.9320140  40.4674330  19.2003590  31.5997820  42.9082020  20.2635880
  31.9706650  42.1249340  19.8571850  32.2399750  43.5971120  20.0853180
  28.5831580  44.2918600  25.6766200  27.7691420  44.7215760  25.9391990
  28.9905780  44.9037010  25.0635250  30.6457020  42.3466290  12.5766470
  30.9205860  43.2545170  12.4485690  30.4567760  42.2828820  13.5128460
  27.0432630  35.3711140  13.8720100  27.4617510  35.1842120  13.0316760
  26.7368690  34.5190190  14.1823030  30.5422360  40.2835280  17.5695900
  30.1665960  39.5163210  17.1377190  29.8125480  40.6657980  18.0570830
  15.1318120  40.9622420  24.1904950  15.4991160  40.8749820  25.0700970
  14.5628940  40.1988970  24.0911810  29.9321980  39.4306800  27.2035420
  29.7008070  39.2019550  26.3033370  30.1926530  40.3506350  27.1580310
  14.6834120  37.8731510  28.0963370  13.7890170  37.8398270  28.4357080
  15.2231670  38.0718300  28.8614620  28.3710050  34.6563230  29.9815120
  29.2480230  34.6646630  30.3649120  28.3830890  33.9194070  29.3707470
  13.3080270  37.7868780  15.5926940  12.4044350  38.0498980  15.4178600
  13.7920890  38.0579950  14.8126900  29.8173320  38.5092770  20.8703140
  30.3410800  38.0155420  20.2393310  30.4032740  38.6443130  21.6150710
  29.9963040  38.5932640  24.3922690  29.0465750  38.5596180  24.5067680
  30.1776050  39.5032750  24.1572460  15.8507480  36.8434320  13.5021320
  16.5599180  36.4217540  13.0168600  15.1347420  36.9109550  12.8704670
  15.4981640  32.8973650  12.5423970  16.2209770  33.4382590  12.8605190
  15.7706160  32.6237070  11.6665510  29.3073290  37.7666120  16.8095550
  29.8032410  37.5336990  17.5944430  29.1089360  36.9277960  16.3933190
  15.1873830  32.1479840  22.4446590  15.8350020  31.5977220  22.0041750
  15.6075670  32.4022990  23.2662400  30.7360450  36.4027070  19.3433230
  30.6259730  36.2483110  20.2815500  31.4968040  35.8748010  19.1008640
  29.0826170  32.3421200  25.8016230  29.7198390  32.9555340  26.1675420
  29.2301060  32.3781860  24.8565460  31.6250720  34.2334990  12.5839370
  32.5500030  34.1016170  12.3757660  31.6026510  34.3127810  13.5375820
  31.6989210  35.0045650  15.2096080  30.9040710  34.9390770  15.7388990
  31.9032490  35.9396290  15.1981430  28.6407630  49.0437200  19.2034470
  29.2366700  48.7221770  18.5268890  28.8985780  48.5709020  19.9947740
  14.9405830  32.3035510  25.1871910  14.5920650  32.7599330  25.9530090
  14.6093530  31.4092640  25.2694340  16.5470200  45.4755110  29.3525100
  16.5039830  45.1048020  30.2339560  16.6781210  46.4132680  29.4926920
  20.2476230  47.0314700  24.9534820  20.0067590  47.2989260  24.0665340
  21.1878870  47.2020430  25.0085680  22.4530650  33.4947390  28.7091330
  22.3919540  34.0869220  29.4586740  23.3931030  33.3873350  28.5641590
  25.0905210  33.1517450  28.3483620  25.7045620  33.4696740  27.6864700
  25.6354770  32.6666040  28.9679480  31.5080390  49.0509080  25.7545460
  31.0138670  49.4477950  25.0372590  30.8993680  48.4258290  26.1482740
  15.6126470  31.8311710  28.4622680  16.1609460  31.6499760  27.6988790
  15.6781780  31.0405820  28.9978990  16.3858230  48.4217360  26.4722880
  15.7918550  48.2902060  27.2112920  16.3782070  47.5855500  26.0064980
  25.8313250  31.7149590  24.6752910  24.9573090  32.0484700  24.4725840
  25.7224000  31.2422770  25.5004780  26.7385230  33.9220460  26.0594630
  26.4098590  33.1072220  25.6796360  27.6867530  33.8790270  25.9360320
  29.1919840  49.6932500  23.0332200  28.7322810  50.4448310  22.6590220
  28.5632300  48.9738970  22.9747000  16.0170460  45.7875740  25.4230920
  15.2904520  45.1681030  25.3556870  16.0779610  46.1816350  24.5529000
  19.6215560  48.0020740  22.2080330  20.1380580  47.3908100  21.6828590
  20.2712940  48.5049520  22.6991340  22.3611060  48.8929230  23.0349310
  22.6488870  48.6383530  22.1582320  22.8734280  48.3406590  23.6254880
  23.5788070  32.6319430  23.6145820  22.7959860  33.1064930  23.8942580
  23.2851000  31.7274260  23.5059000  28.1309140  33.3342530  21.6594910
  28.5717230  33.2787630  20.8116510  27.8616730  34.2500540  21.7305090
  29.9947710  32.9657770  19.6703730  29.9336110  32.0218990  19.5234750
  30.7739740  33.0737860  20.2157190  14.3000460  49.1050130  18.6327680
  14.1322500  48.4720810  19.3309570  13.4334970  49.3109530  18.2821870
  14.9228480  32.9366910  16.1359540  15.6807840  33.0495790  15.5623570
  14.4605650  33.7736110  16.0902970  21.4642290  35.0506180  19.1261850
  20.6516800  34.6763070  18.7857730  21.9683930  34.2951260  19.4283040
  25.9667270  31.7148630  20.3644920  26.5696640  32.2868840  20.8393440
  25.2260260  32.2788070  20.1418820  29.1101870  32.1170190  15.6385200
  29.3052500  33.0153640  15.9052630  28.3231740  31.8857270  16.1318150
  15.9063160  47.7983360  16.0777820  15.3810780  48.1791390  15.3739780
  15.8307740  48.4234130  16.7987530  17.2953630  33.4630960  14.6761510
  17.8246390  32.6760760  14.5469460  17.9281950  34.1422150  14.9097040
  19.4891470  33.2006100  17.7306900  18.8594210  32.4993410  17.8977030
  18.9496610  33.9610230  17.5140060  22.4283420  49.8145330  30.4017510
  23.3550730  49.5789600  30.4453470  22.4133850  50.6417330  29.9203540
  30.6628480  49.3570900  17.3991760  30.8380670  48.6708640  16.7552680
  29.9650050  49.8817950  17.0068430  19.6147030  32.4790080  30.1659390
  19.3331300  32.9823680  29.4020210  19.9966730  31.6811830  29.8001520
  18.5056130  49.7465740  14.9527070  19.2374950  49.4625020  14.4050960
  18.7649800  49.5079020  15.8426450  17.6670920  45.8630470  14.9573400
  17.0379800  46.3315570  15.5059230  17.7818750  45.0179690  15.3919590
  26.2162490  31.8943660  30.7439860  26.1027940  32.2138270  31.6391380
  27.0332230  32.2956170  30.4477140  28.9960980  49.0415190  30.2258550
  29.7886300  48.5464420  30.0184510  29.2894130  49.7205330  30.8334160
  23.2538680  41.6915150   2.9883870  22.4780780  41.2115590   3.2782440
  23.9051610  41.0120800   2.8140030  17.2704510  42.0034960   3.8659630
  16.4389390  41.7483670   4.2656140  17.8785490  42.0745730   4.6017550
  27.2746110  46.0975340   1.7683000  26.8127640  45.3262580   2.0970170
  28.0871660  46.1241410   2.2735450  17.2505770  46.0375050   4.0617650
  17.5533810  45.1472790   3.8827870  17.9949360  46.5945270   3.8339900
  13.6429470  39.5642500   3.5341720  14.2145580  38.7964700   3.5345360
  13.6431010  39.8631260   2.6248330  22.6947670  44.3672340   2.9954030
  22.6255950  43.4262280   2.8343160  23.4567530  44.4573750   3.5676600
  14.8854340  34.9726860   5.3210650  14.7057180  34.0752610   5.6013410
  14.4834420  35.5198730   5.9957600  23.7252840  37.1742720   3.2222960
  24.1017660  36.3014600   3.1096630  23.6272350  37.5101420   2.3313400
  15.5041010  37.4687360   3.9292990  16.1851120  37.7325730   4.5480390
  15.1889060  36.6288230   4.2631000  19.6965580  38.5154720   3.0165580
  20.2043800  39.0135690   3.6570600  20.2278820  37.7389920   2.8404940
  31.7976510  36.6859910   6.7194930  31.0928680  37.0741620   6.2010040
  32.0634430  37.3810200   7.3215860  17.9801680  33.1553280   7.2829000
  17.9820120  33.6725670   6.4774900  17.1505990  32.6783460   7.2598930
  19.2304530  42.7948460   5.4602500  18.8973910  43.4217380   6.1023570
  19.4071210  43.3210340   4.6804170  27.7438440  36.6093540   2.9278840
  27.0394010  36.8978430   3.5081950  28.1050600  37.4193650   2.5678400
  17.6617010  34.8663240   5.2899450  18.0033820  35.7105290   4.9953320
  16.7232820  35.0146980   5.4064790  18.4423630  44.7629260   7.2751680
  19.0597630  45.4380340   6.9936130  17.5816750  45.1717240   7.1839180
  29.3601220  46.2268670   5.1906320  28.6764740  46.8967780   5.1822990
  29.8995510  46.4249320   4.4251180  30.8125360  36.0548330   3.3188050
  29.8650270  36.0887310   3.4503480  31.1375350  36.8687280   3.7037410
  26.8959960  48.0712800   3.9051500  26.9087120  47.6675090   3.0373760
  26.3435180  48.8460090   3.8012930  26.2945400  42.9742640   5.2334110
  26.7114190  42.7602750   4.3987570  27.0185220  43.2315430   5.8042730
  30.2407500  41.3729860   5.3250350  29.4126130  41.4422950   4.8500480
  30.8357980  41.9584170   4.8566180  27.2049510  38.1599180   6.2705220
  26.7920690  38.9852890   6.5245210  26.4725460  37.5744220   6.0781580
  19.8064000  44.6326640   3.2963100  19.5092290  44.0272110   2.6170880
  20.7563820  44.6703950   3.1852460  18.0510920  37.7202290   4.9122930
  18.6025510  37.8297630   4.1376180  18.5654430  38.0939890   5.6278160
  27.8949610  48.2058510   6.9586200  27.4180170  49.0130700   6.7658810
  27.2111400  47.5536840   7.1112410  18.8982430  44.3708330   9.9470900
  18.0010960  44.5948300  10.1944300  18.9235300  44.4943270   8.9982300
  17.7253650  41.2421650   8.5228270  17.5861420  42.1144450   8.8915670
  16.8435010  40.8994460   8.3776210  19.5234000  47.1843350  10.7313420
  19.4949430  47.5886300   9.8641850  19.3598970  46.2553710  10.5685020
  31.4748820  47.9670450  12.0277590  31.9508540  48.4453340  12.7066670
  32.0955980  47.8987940  11.3023090  13.6772300  43.0119200   4.4399180
  13.7552720  43.1467970   3.4954900  14.2913980  42.3035090   4.6327300
  30.8782070  45.1583300   9.1877600  31.0045130  44.9195180   8.2694780
  30.9203450  44.3267840   9.6599680  24.7398810  48.8611300   7.7572410
  25.2543480  48.7719310   8.5594840  23.8967890  49.2071000   8.0500320
  30.7306080  37.2115760  10.1527340  30.1150350  37.7195430   9.6242800
  30.4102500  36.3114090  10.0953280  13.7331820  44.0533370   6.9793640
  13.8962860  43.5838730   6.1613010  14.1984270  43.5456930   7.6442480
  18.5050590  33.1839130   2.0154210  18.0618740  33.9648670   1.6838730
  19.0635580  33.5069020   2.7225150  22.7920400  36.0507650   7.6189530
  22.3299770  36.2590670   8.4309470  22.3898510  35.2367000   7.3160200
  27.7924910  37.2716600   8.7486190  26.9418500  36.9722350   9.0695260
  27.6326700  37.5158610   7.8370010  24.8874620  38.7718350  10.8484980
  25.2128030  37.9382100  10.5087210  25.6754950  39.2946870  10.9963310
  20.5426490  33.7286460   3.8743810  20.8398820  34.6349290   3.7935830
  21.0912050  33.2405240   3.2603380  20.7364020  39.2058280  10.4095730
  20.6407620  38.2653010  10.2596130  21.5796000  39.4273350  10.0143800
  15.8674560  35.6171950   8.5629510  15.4737950  36.4647160   8.7702290
  15.1792960  34.9798320   8.7538150  22.4419610  35.7006920  11.6326250
  21.7517930  35.5079120  12.2672340  23.1851910  35.9841560  12.1650550
  13.1691610  33.5400410   2.5959590  12.8804660  34.1103270   3.3084570
  13.9137370  33.0604860   2.9590820  24.7182580  39.5405360   4.4680170
  23.9863700  40.0492170   4.8170270  24.3206920  38.7235340   4.1668950
  21.1559970  36.2159560   2.8732660  21.1596030  35.7749510   2.0237200
  22.0511090  36.5376890   2.9804480  17.0062350  36.0986050   1.8326870
  16.6662400  36.5761280   2.5893920  16.2439670  35.6451170   1.4727970
  25.1808490  34.9939040   3.8803110  25.1981230  35.4447690   4.7244960
  24.9324070  34.0944680   4.0936550  28.6079240  32.4071220   9.7189490
  28.9325010  31.6760880  10.2447470  28.6435750  32.0884860   8.8170480
  15.3070800  43.4284800   9.1389450  14.9225590  42.7878470   9.7372410
  15.6182990  44.1320920   9.7084180  21.4567940  40.2761340   4.6198070
  21.8238070  39.8019910   5.3659410  21.2673000  41.1502910   4.9606410
  19.2467310  39.3169980   6.9382280  18.9424380  40.1961960   7.1632640
  20.2013770  39.3769770   6.9739720  28.5337080  42.5196330   3.3275520
  29.2536200  43.0151620   2.9371630  28.3318900  41.8414220   2.6829390
  23.9155880  42.5905390   9.2144520  23.8493190  41.6701060   8.9602110
  23.2861020  42.6880830   9.9289160  15.3031040  40.1572720   8.0853640
  14.9445980  40.8226570   8.6726980  15.0085600  39.3256270   8.4566260
  18.5044160  40.6156960  10.9693190  18.2044300  40.7614140  10.0721010
  19.2755400  40.0562250  10.8766580  23.8472610  45.4125960   8.9648320
  23.8617150  44.4806920   8.7467230  23.1397710  45.4985720   9.6038090
  30.0583820  42.0533300   8.3116900  29.3332010  42.6462080   8.1146290
  30.5859280  42.0456840   7.5130270  23.2806510  47.0543530   6.0588820
  23.9248730  47.2602910   6.7362240  23.6435950  46.2931930   5.6059670
  24.5538590  45.0575880   4.7766270  25.1960820  44.3569040   4.8898440
  25.0787940  45.8374320   4.5963160  26.3276210  45.8570780   7.9802330
  26.6632450  46.4437470   8.6580250  25.4076550  45.7263490   8.2100120
  13.8779610  33.6465960   8.7625740  13.1638130  33.8462880   9.3678350
  14.2974650  32.8705530   9.1340540  14.1652200  47.6346220   9.7492270
  14.2743320  46.6940960   9.6087660  13.5132760  47.9000970   9.1006000
  22.1564790  45.9062110  11.1490390  21.8361660  45.1871350  11.6936080
  21.4823150  46.5817180  11.2226450  25.3718390  36.1388270   6.5127190
  25.7399210  35.3183480   6.8406760  24.5116590  36.1990160   6.9282840
  22.3320380  38.7927860   6.7365160  22.8305630  39.2673680   7.4017010
  22.4743330  37.8691380   6.9435190  29.5387240  35.0095820   7.5793550
  29.0360840  35.7501220   7.9187360  30.3543900  35.3979820   7.2630340
  29.8334830  47.4237850   2.7009170  29.9582250  48.2469020   3.1732980
  30.7000390  47.2128580   2.3533320  17.3052360  49.5169060   2.3726300
  18.0414840  48.9684520   2.6434870  17.6893280  50.3825070   2.2332290
  16.3110640  48.7015130  11.5611880  17.1123370  49.0227180  11.9747280
  15.7962460  48.3410710  12.2831790  25.1475270  44.8095000  11.5087290
  24.5413430  44.8326600  10.7683040  24.8429380  44.0778040  12.0454540
  26.5775640  48.5375290  10.1196700  27.5297390  48.4533310  10.0696940
  26.4303860  49.2017000  10.7930490  14.0308450  41.1888590  10.5047930
  14.5347470  40.6095870  11.0764160  13.2915870  41.4728820  11.0424300
  21.0846390  42.5959580  10.0383450  20.3192060  43.1644580   9.9538120
  21.2662350  42.3035790   9.1451680  28.2269740  44.3264910  10.5958470
  28.9679210  44.6640670  10.0925930  27.4642420  44.4956970  10.0428240
  16.0631530  39.3318180  11.3998000  16.1036870  39.0332050  12.3083230
  16.9177030  39.7325790  11.2405520  18.0037340  37.9110280   9.3672490
  17.4733800  37.4201230   8.7395830  18.6725410  38.3394480   8.8330420
  26.9015400  42.3779740   9.1313680  27.3156420  42.5324820   9.9804100
  25.9666400  42.5034960   9.2939460  27.3737570  39.7175900  11.1352830
  27.9558340  38.9628220  11.0473310  27.5499340  40.2483340  10.3584310
  18.4909640  34.8772650   9.4469780  18.3966510  34.2593400   8.7220650
  17.9107030  35.6038940   9.2199690  21.2571080  33.4345890   6.4797170
  20.8088380  33.4570150   5.6342720  20.6236280  33.0364910   7.0767470
  21.6630630  42.3300220   7.1009610  22.0818740  43.1732950   6.9285850
  20.7439260  42.4672260   6.8716390  23.9994530  40.0616400   8.4847450
  24.1190740  39.4657540   9.2242290  24.8588530  40.0986090   8.0648750
  26.3382430  40.6153590   7.0609960  25.8117650  41.1396210   6.4575100
  26.6813770  41.2480980   7.6919690  19.5138050  48.6353230   8.2167340
  18.9759140  49.3599290   7.8976040  19.7672010  48.1583570   7.4264680
  20.7663300  36.6037750   9.7423270  21.3562990  36.2953600  10.4301090
  19.9483540  36.1317500   9.8983170  25.5856730  36.2203560   9.9756290
  24.8972250  35.5585100   9.9106280  26.3062750  35.7741830  10.4204750
  22.3700260  49.8704440   8.4753990  22.2958960  50.7739580   8.7826360
  21.4679100  49.5516340   8.4476060  13.7727550  47.1979030   1.7787610
  14.1030560  46.3300090   1.5466250  14.2018550  47.4037550   2.6092570
  14.2617760  48.0649620   4.5169240  13.8248750  48.2450420   5.3493390
  14.8295440  48.8224240   4.3750960  29.8979940  47.5666620   8.8046550
  29.2981930  47.6259180   8.0610470  30.0273840  46.6271600   8.9343400
  28.5831580  44.2918600   6.9022710  27.7691420  44.7215760   7.1648500
  28.9905780  44.9037010   6.2891760  15.1318120  40.9622420   5.4161460
  15.4991160  40.8749820   6.2957480  14.5628940  40.1988970   5.3168320
  29.9321980  39.4306800   8.4291930  29.7008070  39.2019550   7.5289880
  30.1926530  40.3506350   8.3836820  14.6834120  37.8731510   9.3219880
  13.7890170  37.8398270   9.6613590  15.2231670  38.0718300  10.0871130
  28.3710050  34.6563230  11.2071630  29.2480230  34.6646630  11.5905630
  28.3830890  33.9194070  10.5963980  29.8173320  38.5092770   2.0959650
  30.3410800  38.0155420   1.4649820  30.4032740  38.6443130   2.8407220
  29.9963040  38.5932640   5.6179200  29.0465750  38.5596180   5.7324190
  30.1776050  39.5032750   5.3828970  15.1873830  32.1479840   3.6703100
  15.8350020  31.5977220   3.2298260  15.6075670  32.4022990   4.4918910
  29.0826170  32.3421200   7.0272740  29.7198390  32.9555340   7.3931930
  29.2301060  32.3781860   6.0821970  14.9405830  32.3035510   6.4128420
  14.5920650  32.7599330   7.1786600  14.6093530  31.4092640   6.4950850
  16.5470200  45.4755110  10.5781610  16.5039830  45.1048020  11.4596070
  16.6781210  46.4132680  10.7183430  20.2476230  47.0314700   6.1791330
  20.0067590  47.2989260   5.2921850  21.1878870  47.2020430   6.2342190
  22.4530650  33.4947390   9.9347840  22.3919540  34.0869220  10.6843250
  23.3931030  33.3873350   9.7898100  25.0905210  33.1517450   9.5740130
  25.7045620  33.4696740   8.9121210  25.6354770  32.6666040  10.1935990
  31.5080390  49.0509080   6.9801970  31.0138670  49.4477950   6.2629100
  30.8993680  48.4258290   7.3739250  15.6126470  31.8311710   9.6879190
  16.1609460  31.6499760   8.9245300  15.6781780  31.0405820  10.2235500
  16.3858230  48.4217360   7.6979390  15.7918550  48.2902060   8.4369430
  16.3782070  47.5855500   7.2321490  25.8313250  31.7149590   5.9009420
  24.9573090  32.0484700   5.6982350  25.7224000  31.2422770   6.7261290
  26.7385230  33.9220460   7.2851140  26.4098590  33.1072220   6.9052870
  27.6867530  33.8790270   7.1616830  29.1919840  49.6932500   4.2588710
  28.7322810  50.4448310   3.8846730  28.5632300  48.9738970   4.2003510
  16.0170460  45.7875740   6.6487430  15.2904520  45.1681030   6.5813380
  16.0779610  46.1816350   5.7785510  19.6215560  48.0020740   3.4336840
  20.1380580  47.3908100   2.9085100  20.2712940  48.5049520   3.9247850
  22.3611060  48.8929230   4.2605820  22.6488870  48.6383530   3.3838830
  22.8734280  48.3406590   4.8511390  23.5788070  32.6319430   4.8402330
  22.7959860  33.1064930   5.1199090  23.2851000  31.7274260   4.7315510
  28.1309140  33.3342530   2.8851420  28.5717230  33.2787630   2.0373020
  27.8616730  34.2500540   2.9561600  22.4283420  49.8145330  11.6274020
  23.3550730  49.5789600  11.6709980  22.4133850  50.6417330  11.1460050
  19.6147030  32.4790080  11.3915900  19.3331300  32.9823680  10.6276720
  19.9966730  31.6811830  11.0258030  26.2162490  31.8943660  11.9696370
  26.1027940  32.2138270  12.8647890  27.0332230  32.2956170  11.6733650
  28.9960980  49.0415190  11.4515060  29.7886300  48.5464420  11.2441020
  29.2894130  49.7205330  12.0590670  25.1220640  21.1392640  57.4305070
  25.0414690  20.2247250  57.1596780  24.7085060  21.6359710  56.7244780
  23.2538680  22.9171660  59.3114340  22.4780780  22.4372100  59.6012910
  23.9051610  22.2377310  59.1370500  27.2746110  27.3231850  58.0913470
  26.8127640  26.5519090  58.4200640  28.0871660  27.3497920  58.5965920
  15.6796460  18.1893360  53.9732490  14.7913160  18.5309330  53.8712370
  15.9637650  17.9893680  53.0813320  13.6429470  20.7899010  59.8572190
  14.2145580  20.0221210  59.8575830  13.6431010  21.0887770  58.9478800
  23.5009420  29.6089860  57.7117460  22.8820860  30.0647360  57.1411900
  24.3561200  29.7641320  57.3107160  22.6947670  25.5928850  59.3184500
  22.6255950  24.6518790  59.1573630  23.4567530  25.6830260  59.8907070
  23.7252840  18.3999230  59.5453430  24.1017660  17.5271110  59.4327100
  23.6272350  18.7357930  58.6543870  17.8557850  16.7724860  55.0070870
  17.9624600  17.6728590  55.3139630  16.9450210  16.7242830  54.7165520
  27.5076960  15.8949670  56.4781770  28.3286580  15.4046240  56.5207250
  27.5411040  16.4847330  57.2313610  19.6965580  19.7411230  59.3396050
  20.2043800  20.2392200  59.9801070  20.2278820  18.9646430  59.1635410
  24.3672770  24.4929100  55.1049370  23.7490040  24.9578550  54.5412090
  24.8796020  25.1856580  55.5218880  27.7438440  17.8350050  59.2509310
  27.0394010  18.1234940  59.8312420  28.1050600  18.6450160  58.8908870
  13.7355970  25.1785630  52.4789000  13.3583950  25.6672730  51.7473900
  13.9929040  25.8510910  53.1095530  30.8125360  17.2804840  59.6418520
  29.8650270  17.3143820  59.7733950  31.1375350  18.0943790  60.0267880
  21.3444900  13.5802020  57.9374510  21.6519880  13.0248910  57.2210010
  20.4145600  13.7146480  57.7547500  26.8959960  29.2969310  60.2281970
  26.9087120  28.8931600  59.3604230  26.3435180  30.0716600  60.1243400
  28.1905380  26.0185530  55.3172140  28.0801710  25.0759860  55.4421560
  28.1873630  26.3801170  56.2034900  23.7325660  21.6450850  54.6734630
  22.8054940  21.5788230  54.9023100  23.8850480  22.5830980  54.5589870
  23.7194740  17.9167850  51.6701790  22.7798410  18.0781810  51.7554250
  24.0378000  18.6353530  51.1237780  27.7622950  23.2071150  55.1769880
  27.1435370  22.8690700  54.5296180  27.7447400  22.5630910  55.8849070
  19.3382300  22.1715590  57.4554360  18.9339300  21.4592840  56.9600260
  19.4245420  21.8268830  58.3442400  19.8064000  25.8583150  59.6193570
  19.5092290  25.2528620  58.9401350  20.7563820  25.8960460  59.5082930
  25.9387650  22.4457960  52.1842630  26.3780930  21.6080390  52.0380450
  26.6516070  23.0787360  52.2706770  24.0483030  27.3854030  56.1523870
  24.4878940  28.1278360  55.7379260  23.9869920  27.6280600  57.0762830
  29.5204790  13.7000770  50.4983670  29.2077450  13.7927600  51.3982740
  30.2817260  14.2781800  50.4481100  16.0386930  21.0660570  54.9561010
  15.9184530  21.7922660  54.3442280  15.7287820  20.2963480  54.4788920
  14.9219930  25.9375900  57.1735830  14.5148010  26.0790490  56.3189430
  15.8132940  25.6536060  56.9707040  26.7153210  30.3723150  53.5086880
  26.5554350  30.0826090  54.4068710  26.5499920  29.5963280  52.9732110
  19.1941590  30.1521680  55.2858500  19.0184070  29.2357220  55.0726300
  18.3397330  30.5108970  55.5256300  26.4179340  27.8810710  52.0684880
  25.7244500  27.8788000  51.4087160  27.1602200  27.4570030  51.6379050
  25.9829270  29.5073420  56.1433370  26.4386220  28.7262800  56.4571990
  26.3221790  30.2180240  56.6874550  18.5050590  14.4095640  58.3384680
  18.0618740  15.1905180  58.0069200  19.0635580  14.7325530  59.0455620
  21.6209410  14.0306340  53.2190510  20.9963590  14.0266210  53.9443820
  21.5339530  13.1637300  52.8226480  20.5426490  14.9542970  60.1974280
  20.8398820  15.8605800  60.1166300  21.0912050  14.4661750  59.5833850
  18.2964810  19.5329210  56.0665930  18.0705730  19.3166380  56.9712550
  17.5157340  19.9657670  55.7211900  25.5262570  19.5392580  54.6656580
  24.9271460  20.2628380  54.4820200  26.0742180  19.4769360  53.8833030
  24.1327440  18.1756120  56.6959860  24.5257010  18.4928320  55.8828550
  24.4944290  17.2968000  56.8104380  13.1691610  14.7656920  58.9190060
  12.8804660  15.3359780  59.6315040  13.9137370  14.2861370  59.2821290
  13.3561840  18.7077040  50.1292780  13.2736510  19.6507800  50.2707770
  13.0044900  18.5651950  49.2505130  21.1559970  17.4416070  59.1963130
  21.1596030  17.0006020  58.3467670  22.0511090  17.7633400  59.3034950
  17.0062350  17.3242560  58.1557340  16.6662400  17.8017790  58.9124390
  16.2439670  16.8707680  57.7958440  21.2180120  18.4428150  52.1869890
  21.3392940  18.4014630  53.1355710  20.8328630  19.3052300  52.0316620
  20.2301620  20.7529290  51.5853190  19.6618520  20.3047540  50.9589100
  20.9390620  21.1122070  51.0518340  14.3208430  16.2461540  57.0722010
  14.0355350  15.8817210  57.9100630  14.2587290  15.5142000  56.4585150
  17.7749100  24.7487480  53.8579600  17.0011360  24.2085100  53.6978320
  18.5043730  24.2294090  53.5197360  28.5337080  23.7452840  59.6505990
  29.2536200  24.2408130  59.2602100  28.3318900  23.0670730  59.0059860
  23.9947020  15.1390800  53.7935380  23.1811630  14.6403970  53.7180690
  23.8008970  15.9789050  53.3771730  26.7095410  19.5110450  52.0897540
  27.5975030  19.8227680  51.9148880  26.6800500  18.6382700  51.6978120
  17.8186500  24.4167860  57.4958410  18.3365170  23.6136120  57.4415300
  17.3670520  24.3547000  58.3375240  22.7056000  25.6834140  52.7685710
  23.0471700  26.4276370  52.2729030  21.8768710  25.9965260  53.1310540
  28.9809680  20.8222290  51.5577400  28.8973400  21.2536510  50.7073840
  29.7003870  21.2820640  51.9904220  30.0096930  27.6764550  54.2859530
  29.3673090  27.0220170  54.5603250  29.6227590  28.0819640  53.5100200
  25.5883410  25.0049980  58.1331220  25.9407230  24.4078110  57.4732590
  24.7045740  24.6794210  58.3039470  21.6746690  25.7647670  55.5401630
  22.3617820  26.3116880  55.9209220  20.8879110  26.3088400  55.5751240
  13.8139090  21.3820490  51.0318710  14.6833940  21.6645290  51.3154630
  13.3229410  22.1956360  50.9167520  20.9773900  22.7693700  55.1526990
  21.4336680  23.5798950  55.3787180  20.6262110  22.4516840  55.9845480
  16.8785680  13.1131350  55.6249510  16.7500310  13.1049250  56.5734430
  16.0547700  13.4514440  55.2740520  28.3994310  26.5681010  50.8235880
  28.1731890  25.8511450  51.4160520  28.0090510  26.3193450  49.9857630
  14.1810340  30.5947870  51.5980340  14.5407980  31.1937210  50.9437610
  14.0402680  31.1407760  52.3715370  27.9810560  24.4852950  52.4850040
  27.6932260  24.9465640  53.2727920  28.7762730  24.0250720  52.7534260
  20.1978960  27.9779070  52.4154010  20.1889060  28.7108760  51.7998520
  19.2777320  27.7310650  52.5080970  15.7985600  23.1993960  53.1600770
  15.1913550  23.9392860  53.1696070  16.2734950  23.2893320  52.3338970
  28.7380420  16.3201720  53.6445220  28.1093580  16.4247390  52.9303450
  28.2432340  16.5398500  54.4339100  23.1838560  28.0407310  51.0779200
  23.2850540  27.8371300  50.1481180  22.2840300  27.7865590  51.2826980
  20.7064450  18.5987670  55.0603100  19.9980600  19.0674010  55.5016710
  20.9908930  17.9409680  55.6948290  24.7379880  15.3238330  56.4998890
  24.6147660  15.3424460  55.5508400  25.6864440  15.3717270  56.6197290
  21.8256670  30.5593630  55.7726870  22.0798170  30.5215020  54.8506240
  20.8769150  30.4326960  55.7655120  18.9099470  16.9072750  52.4353810
  19.7590000  17.3442900  52.3694000  18.5430740  17.2193010  53.2625870
  27.8309250  21.4785510  57.3485380  26.8899390  21.4935740  57.5233070
  28.1453320  20.6921470  57.7945680  17.8090890  23.1605110  50.9089340
  18.5754160  23.0486470  51.4714770  17.8865580  22.4643080  50.2566110
  16.5037650  20.5930180  51.5922230  16.5841240  19.6457690  51.7039630
  17.3957400  20.9237060  51.6982890  29.8334830  28.6494360  59.0239640
  29.9582250  29.4725530  59.4963450  30.7000390  28.4385090  58.6763790
  17.3052360  30.7425570  58.6956770  18.0414840  30.1941030  58.9665340
  17.6893280  31.6081580  58.5562760  14.1897840  26.8099140  54.5698280
  13.2637620  27.0520280  54.5603690  14.6554270  27.6373400  54.4483030
  20.4154670  29.9155880  50.5182340  21.2083280  30.2044710  50.0664130
  19.8959020  29.4848050  49.8394820  29.4684840  29.1426010  51.9419080
  29.1826350  28.7291150  51.1273260  29.2704390  30.0713720  51.8219600
  20.9332070  25.1359290  50.3824690  20.8282710  24.5211640  51.1086070
  20.7656290  24.6125180  49.5987700  24.1734800  24.1979320  50.9866680
  23.6244900  24.6448620  51.6309420  24.7954060  23.6928570  51.5104350
  19.8409920  23.1570240  52.8831980  20.2626340  22.9910110  53.7263370
  19.9660760  22.3470470  52.3887120  22.3537560  22.1807850  50.1309080
  22.8743220  21.4656870  49.7650230  23.0005960  22.8193720  50.4309590
  18.7368820  19.2303470  49.8290140  18.5357880  18.3670830  50.1903480
  18.5660870  19.1436830  48.8911740  26.2157130  14.0411700  52.3577020
  26.4959420  13.1979600  52.7136440  25.4422860  14.2734810  52.8715770
  17.5351620  16.3304090  49.8168020  17.8377520  16.3371520  48.9087170
  18.2746210  15.9801950  50.3135680  20.7536550  15.2738710  50.8024220
  20.4058550  14.5962700  50.2226670  20.9549320  14.8128220  51.6167610
  22.9185590  30.2619460  52.4210820  23.8136380  30.6004430  52.4429580
  22.9503220  29.5398870  51.7935100  16.5581750  25.6346510  50.6497820
  16.9956620  26.1776180  51.3055400  17.0429480  24.8093460  50.6594160
  13.7727550  28.4235540  58.1018080  14.1030560  27.5556600  57.8696720
  14.2018550  28.6294060  58.9323040  18.3689470  26.7544550  55.7620050
  18.0685010  26.6309520  56.6623960  18.2626960  25.8953140  55.3535780
  31.1381390  26.5340950  50.4646730  30.3074350  26.6017600  50.9353960
  31.3153220  27.4245070  50.1613590  30.5937850  23.2788430  52.9680930
  31.3556760  23.8485080  53.0740620  30.6092220  22.7115630  53.7389240
  14.0942190  21.8026360  57.1988590  13.4391030  21.5338000  56.5548290
  14.9320140  21.6930840  56.7490570  31.5997820  24.1338530  57.8122860
  31.9706650  23.3505850  57.4058830  32.2399750  24.8227630  57.6340160
  30.6457020  23.5722800  50.1253450  30.9205860  24.4801680  49.9972670
  30.4567760  23.5085330  51.0615440  27.0432630  16.5967650  51.4207080
  27.4617510  16.4098630  50.5803740  26.7368690  15.7446700  51.7310010
  30.5422360  21.5091790  55.1182880  30.1665960  20.7419720  54.6864170
  29.8125480  21.8914490  55.6057810  13.3080270  19.0125290  53.1413920
  12.4044350  19.2755490  52.9665580  13.7920890  19.2836460  52.3613880
  29.8173320  19.7349280  58.4190120  30.3410800  19.2411930  57.7880290
  30.4032740  19.8699640  59.1637690  15.8507480  18.0690830  51.0508300
  16.5599180  17.6474050  50.5655580  15.1347420  18.1366060  50.4191650
  15.4981640  14.1230160  50.0910950  16.2209770  14.6639100  50.4092170
  15.7706160  13.8493580  49.2152490  29.3073290  18.9922630  54.3582530
  29.8032410  18.7593500  55.1431410  29.1089360  18.1534470  53.9420170
  30.7360450  17.6283580  56.8920210  30.6259730  17.4739620  57.8302480
  31.4968040  17.1004520  56.6495620  31.6250720  15.4591500  50.1326350
  32.5500030  15.3272680  49.9244640  31.6026510  15.5384320  51.0862800
  31.6989210  16.2302160  52.7583060  30.9040710  16.1647280  53.2875970
  31.9032490  17.1652800  52.7468410  28.6407630  30.2693710  56.7521450
  29.2366700  29.9478280  56.0755870  28.8985780  29.7965530  57.5434720
  19.6215560  29.2277250  59.7567310  20.1380580  28.6164610  59.2315570
  20.2712940  29.7306030  60.2478320  28.1309140  14.5599040  59.2081890
  28.5717230  14.5044140  58.3603490  27.8616730  15.4757050  59.2792070
  29.9947710  14.1914280  57.2190710  29.9336110  13.2475500  57.0721730
  30.7739740  14.2994370  57.7644170  14.3000460  30.3306640  56.1814660
  14.1322500  29.6977320  56.8796550  13.4334970  30.5366040  55.8308850
  14.9228480  14.1623420  53.6846520  15.6807840  14.2752300  53.1110550
  14.4605650  14.9992620  53.6389950  21.4642290  16.2762690  56.6748830
  20.6516800  15.9019580  56.3344710  21.9683930  15.5207770  56.9770020
  25.9667270  12.9405140  57.9131900  26.5696640  13.5125350  58.3880420
  25.2260260  13.5044580  57.6905800  29.1101870  13.3426700  53.1872180
  29.3052500  14.2410150  53.4539610  28.3231740  13.1113780  53.6805130
  15.9063160  29.0239870  53.6264800  15.3810780  29.4047900  52.9226760
  15.8307740  29.6490640  54.3474510  17.2953630  14.6887470  52.2248490
  17.8246390  13.9017270  52.0956440  17.9281950  15.3678660  52.4584020
  19.4891470  14.4262610  55.2793880  18.8594210  13.7249920  55.4464010
  18.9496610  15.1866740  55.0627040  30.6628480  30.5827410  54.9478740
  30.8380670  29.8965150  54.3039660  29.9650050  31.1074460  54.5555410
  18.5056130  30.9722250  52.5014050  19.2374950  30.6881530  51.9537940
  18.7649800  30.7335530  53.3913430  17.6670920  27.0886980  52.5060380
  17.0379800  27.5572080  53.0546210  17.7818750  26.2436200  52.9406570
  25.1220640  21.1392640  38.6561580  25.0414690  20.2247250  38.3853290
  24.7085060  21.6359710  37.9501290  17.2704510  23.2291470  41.4146610
  16.4389390  22.9740180  41.8143120  17.8785490  23.3002240  42.1504530
  15.6796460  18.1893360  35.1989000  14.7913160  18.5309330  35.0968880
  15.9637650  17.9893680  34.3069830  13.6429470  20.7899010  41.0828700
  14.2145580  20.0221210  41.0832340  13.6431010  21.0887770  40.1735310
  14.8854340  16.1983370  42.8697630  14.7057180  15.3009120  43.1500390
  14.4834420  16.7455240  43.5444580  23.7252840  18.3999230  40.7709940
  24.1017660  17.5271110  40.6583610  23.6272350  18.7357930  39.8800380
  17.8557850  16.7724860  36.2327380  17.9624600  17.6728590  36.5396140
  16.9450210  16.7242830  35.9422030  27.5076960  15.8949670  37.7038280
  28.3286580  15.4046240  37.7463760  27.5411040  16.4847330  38.4570120
  15.5041010  18.6943870  41.4779970  16.1851120  18.9582240  42.0967370
  15.1889060  17.8544740  41.8117980  19.6965580  19.7411230  40.5652560
  20.2043800  20.2392200  41.2057580  20.2278820  18.9646430  40.3891920
  17.9801680  14.3809790  44.8315980  17.9820120  14.8982180  44.0261880
  17.1505990  13.9039970  44.8085910  24.3672770  24.4929100  36.3305880
  23.7490040  24.9578550  35.7668600  24.8796020  25.1856580  36.7475390
  19.2304530  24.0204970  43.0089480  18.8973910  24.6473890  43.6510550
  19.4071210  24.5466850  42.2291150  27.7438440  17.8350050  40.4765820
  27.0394010  18.1234940  41.0568930  28.1050600  18.6450160  40.1165380
  17.6617010  16.0919750  42.8386430  18.0033820  16.9361800  42.5440300
  16.7232820  16.2403490  42.9551770  13.7355970  25.1785630  33.7045510
  13.3583950  25.6672730  32.9730410  13.9929040  25.8510910  34.3352040
  30.8125360  17.2804840  40.8675030  29.8650270  17.3143820  40.9990460
  31.1375350  18.0943790  41.2524390  21.3444900  13.5802020  39.1631020
  21.6519880  13.0248910  38.4466520  20.4145600  13.7146480  38.9804010
  28.1905380  26.0185530  36.5428650  28.0801710  25.0759860  36.6678070
  28.1873630  26.3801170  37.4291410  23.7325660  21.6450850  35.8991140
  22.8054940  21.5788230  36.1279610  23.8850480  22.5830980  35.7846380
  23.7194740  17.9167850  32.8958300  22.7798410  18.0781810  32.9810760
  24.0378000  18.6353530  32.3494290  27.7622950  23.2071150  36.4026390
  27.1435370  22.8690700  35.7552690  27.7447400  22.5630910  37.1105580
  27.2049510  19.3855690  43.8192200  26.7920690  20.2109400  44.0732190
  26.4725460  18.8000730  43.6268560  19.3382300  22.1715590  38.6810870
  18.9339300  21.4592840  38.1856770  19.4245420  21.8268830  39.5698910
  18.0510920  18.9458800  42.4609910  18.6025510  19.0554140  41.6863160
  18.5654430  19.3196400  43.1765140  18.8982430  25.5964840  47.4957880
  18.0010960  25.8204810  47.7431280  18.9235300  25.7199780  46.5469280
  25.9387650  22.4457960  33.4099140  26.3780930  21.6080390  33.2636960
  26.6516070  23.0787360  33.4963280  17.7253650  22.4678160  46.0715250
  17.5861420  23.3400960  46.4402650  16.8435010  22.1250970  45.9263190
  24.0483030  27.3854030  37.3780380  24.4878940  28.1278360  36.9635770
  23.9869920  27.6280600  38.3019340  19.5234000  28.4099860  48.2800400
  19.4949430  28.8142810  47.4128830  19.3598970  27.4810220  48.1172000
  29.5204790  13.7000770  31.7240180  29.2077450  13.7927600  32.6239250
  30.2817260  14.2781800  31.6737610  16.0386930  21.0660570  36.1817520
  15.9184530  21.7922660  35.5698790  15.7287820  20.2963480  35.7045430
  31.4748820  29.1926960  49.5764570  31.9508540  29.6709850  50.2553650
  32.0955980  29.1244450  48.8510070  13.6772300  24.2375710  41.9886160
  13.7552720  24.3724480  41.0441880  14.2913980  23.5291600  42.1814280
  14.9219930  25.9375900  38.3992340  14.5148010  26.0790490  37.5445940
  15.8132940  25.6536060  38.1963550  26.7153210  30.3723150  34.7343390
  26.5554350  30.0826090  35.6325220  26.5499920  29.5963280  34.1988620
  19.1941590  30.1521680  36.5115010  19.0184070  29.2357220  36.2982810
  18.3397330  30.5108970  36.7512810  26.4179340  27.8810710  33.2941390
  25.7244500  27.8788000  32.6343670  27.1602200  27.4570030  32.8635560
  25.9829270  29.5073420  37.3689880  26.4386220  28.7262800  37.6828500
  26.3221790  30.2180240  37.9131060  30.7306080  18.4372270  47.7014320
  30.1150350  18.9451940  47.1729780  30.4102500  17.5370600  47.6440260
  13.7331820  25.2789880  44.5280620  13.8962860  24.8095240  43.7099990
  14.1984270  24.7713440  45.1929460  18.5050590  14.4095640  39.5641190
  18.0618740  15.1905180  39.2325710  19.0635580  14.7325530  40.2712130
  22.7920400  17.2764160  45.1676510  22.3299770  17.4847180  45.9796450
  22.3898510  16.4623510  44.8647180  27.7924910  18.4973110  46.2973170
  26.9418500  18.1978860  46.6182240  27.6326700  18.7415120  45.3856990
  24.8874620  19.9974860  48.3971960  25.2128030  19.1638610  48.0574190
  25.6754950  20.5203380  48.5450290  21.6209410  14.0306340  34.4447020
  20.9963590  14.0266210  35.1700330  21.5339530  13.1637300  34.0482990
  20.5426490  14.9542970  41.4230790  20.8398820  15.8605800  41.3422810
  21.0912050  14.4661750  40.8090360  18.2964810  19.5329210  37.2922440
  18.0705730  19.3166380  38.1969060  17.5157340  19.9657670  36.9468410
  25.5262570  19.5392580  35.8913090  24.9271460  20.2628380  35.7076710
  26.0742180  19.4769360  35.1089540  20.7364020  20.4314790  47.9582710
  20.6407620  19.4909520  47.8083110  21.5796000  20.6529860  47.5630780
  24.1327440  18.1756120  37.9216370  24.5257010  18.4928320  37.1085060
  24.4944290  17.2968000  38.0360890  15.8674560  16.8428460  46.1116490
  15.4737950  17.6903670  46.3189270  15.1792960  16.2054830  46.3025130
  22.4419610  16.9263430  49.1813230  21.7517930  16.7335630  49.8159320
  23.1851910  17.2098070  49.7137530  13.1691610  14.7656920  40.1446570
  12.8804660  15.3359780  40.8571550  13.9137370  14.2861370  40.5077800
  13.3561840  18.7077040  31.3549290  13.2736510  19.6507800  31.4964280
  13.0044900  18.5651950  30.4761640  24.7182580  20.7661870  42.0167150
  23.9863700  21.2748680  42.3657250  24.3206920  19.9491850  41.7155930
  21.1559970  17.4416070  40.4219640  21.1596030  17.0006020  39.5724180
  22.0511090  17.7633400  40.5291460  17.0062350  17.3242560  39.3813850
  16.6662400  17.8017790  40.1380900  16.2439670  16.8707680  39.0214950
  21.2180120  18.4428150  33.4126400  21.3392940  18.4014630  34.3612220
  20.8328630  19.3052300  33.2573130  25.1808490  16.2195550  41.4290090
  25.1981230  16.6704200  42.2731940  24.9324070  15.3201190  41.6423530
  20.2301620  20.7529290  32.8109700  19.6618520  20.3047540  32.1845610
  20.9390620  21.1122070  32.2774850  28.6079240  13.6327730  47.2676470
  28.9325010  12.9017390  47.7934450  28.6435750  13.3141370  46.3657460
  15.3070800  24.6541310  46.6876430  14.9225590  24.0134980  47.2859390
  15.6182990  25.3577430  47.2571160  21.4567940  21.5017850  42.1685050
  21.8238070  21.0276420  42.9146390  21.2673000  22.3759420  42.5093390
  14.3208430  16.2461540  38.2978520  14.0355350  15.8817210  39.1357140
  14.2587290  15.5142000  37.6841660  19.2467310  20.5426490  44.4869260
  18.9424380  21.4218470  44.7119620  20.2013770  20.6026280  44.5226700
  17.7749100  24.7487480  35.0836110  17.0011360  24.2085100  34.9234830
  18.5043730  24.2294090  34.7453870  23.9947020  15.1390800  35.0191890
  23.1811630  14.6403970  34.9437200  23.8008970  15.9789050  34.6028240
  23.9155880  23.8161900  46.7631500  23.8493190  22.8957570  46.5089090
  23.2861020  23.9137340  47.4776140  26.7095410  19.5110450  33.3154050
  27.5975030  19.8227680  33.1405390  26.6800500  18.6382700  32.9234630
  17.8186500  24.4167860  38.7214920  18.3365170  23.6136120  38.6671810
  17.3670520  24.3547000  39.5631750  22.7056000  25.6834140  33.9942220
  23.0471700  26.4276370  33.4985540  21.8768710  25.9965260  34.3567050
  15.3031040  21.3829230  45.6340620  14.9445980  22.0483080  46.2213960
  15.0085600  20.5512780  46.0053240  18.5044160  21.8413470  48.5180170
  18.2044300  21.9870650  47.6207990  19.2755400  21.2818760  48.4253560
  28.9809680  20.8222290  32.7833910  28.8973400  21.2536510  31.9330350
  29.7003870  21.2820640  33.2160730  30.0096930  27.6764550  35.5116040
  29.3673090  27.0220170  35.7859760  29.6227590  28.0819640  34.7356710
  13.8139090  21.3820490  32.2575220  14.6833940  21.6645290  32.5411140
  13.3229410  22.1956360  32.1424030  20.9773900  22.7693700  36.3783500
  21.4336680  23.5798950  36.6043690  20.6262110  22.4516840  37.2101990
  16.8785680  13.1131350  36.8506020  16.7500310  13.1049250  37.7990940
  16.0547700  13.4514440  36.4997030  28.3994310  26.5681010  32.0492390
  28.1731890  25.8511450  32.6417030  28.0090510  26.3193450  31.2114140
  14.1810340  30.5947870  32.8236850  14.5407980  31.1937210  32.1694120
  14.0402680  31.1407760  33.5971880  13.8779610  14.8722470  46.3112720
  13.1638130  15.0719390  46.9165330  14.2974650  14.0962040  46.6827520
  27.9810560  24.4852950  33.7106550  27.6932260  24.9465640  34.4984430
  28.7762730  24.0250720  33.9790770  14.1652200  28.8602730  47.2979250
  14.2743320  27.9197470  47.1574640  13.5132760  29.1257480  46.6492980
  22.1564790  27.1318620  48.6977370  21.8361660  26.4127860  49.2423060
  21.4823150  27.8073690  48.7713430  20.1978960  27.9779070  33.6410520
  20.1889060  28.7108760  33.0255030  19.2777320  27.7310650  33.7337480
  15.7985600  23.1993960  34.3857280  15.1913550  23.9392860  34.3952580
  16.2734950  23.2893320  33.5595480  25.3718390  17.3644780  44.0614170
  25.7399210  16.5439990  44.3893740  24.5116590  17.4246670  44.4769820
  28.7380420  16.3201720  34.8701730  28.1093580  16.4247390  34.1559960
  28.2432340  16.5398500  35.6595610  23.1838560  28.0407310  32.3035710
  23.2850540  27.8371300  31.3737690  22.2840300  27.7865590  32.5083490
  20.7064450  18.5987670  36.2859610  19.9980600  19.0674010  36.7273220
  20.9908930  17.9409680  36.9204800  22.3320380  20.0184370  44.2852140
  22.8305630  20.4930190  44.9503990  22.4743330  19.0947890  44.4922170
  24.7379880  15.3238330  37.7255400  24.6147660  15.3424460  36.7764910
  25.6864440  15.3717270  37.8453800  18.9099470  16.9072750  33.6610320
  19.7590000  17.3442900  33.5950510  18.5430740  17.2193010  34.4882380
  29.5387240  16.2352330  45.1280530  29.0360840  16.9757730  45.4674340
  30.3543900  16.6236330  44.8117320  27.8309250  21.4785510  38.5741890
  26.8899390  21.4935740  38.7489580  28.1453320  20.6921470  39.0202190
  17.8090890  23.1605110  32.1345850  18.5754160  23.0486470  32.6971280
  17.8865580  22.4643080  31.4822620  16.5037650  20.5930180  32.8178740
  16.5841240  19.6457690  32.9296140  17.3957400  20.9237060  32.9239400
  14.1897840  26.8099140  35.7954790  13.2637620  27.0520280  35.7860200
  14.6554270  27.6373400  35.6739540  16.3110640  29.9271640  49.1098860
  17.1123370  30.2483690  49.5234260  15.7962460  29.5667220  49.8318770
  20.4154670  29.9155880  31.7438850  21.2083280  30.2044710  31.2920640
  19.8959020  29.4848050  31.0651330  25.1475270  26.0351510  49.0574270
  24.5413430  26.0583110  48.3170020  24.8429380  25.3034550  49.5941520
  26.5775640  29.7631800  47.6683680  27.5297390  29.6789820  47.6183920
  26.4303860  30.4273510  48.3417470  29.4684840  29.1426010  33.1675590
  29.1826350  28.7291150  32.3529770  29.2704390  30.0713720  33.0476110
  14.0308450  22.4145100  48.0534910  14.5347470  21.8352380  48.6251140
  13.2915870  22.6985330  48.5911280  21.0846390  23.8216090  47.5870430
  20.3192060  24.3901090  47.5025100  21.2662350  23.5292300  46.6938660
  24.1734800  24.1979320  32.2123190  23.6244900  24.6448620  32.8565930
  24.7954060  23.6928570  32.7360860  28.2269740  25.5521420  48.1445450
  28.9679210  25.8897180  47.6412910  27.4642420  25.7213480  47.5915220
  16.0631530  20.5574690  48.9484980  16.1036870  20.2588560  49.8570210
  16.9177030  20.9582300  48.7892500  19.8409920  23.1570240  34.1088490
  20.2626340  22.9910110  34.9519880  19.9660760  22.3470470  33.6143630
  18.0037340  19.1366790  46.9159470  17.4733800  18.6457740  46.2882810
  18.6725410  19.5650990  46.3817400  22.3537560  22.1807850  31.3565590
  22.8743220  21.4656870  30.9906740  23.0005960  22.8193720  31.6566100
  26.9015400  23.6036250  46.6800660  27.3156420  23.7581330  47.5291080
  25.9666400  23.7291470  46.8426440  27.3737570  20.9432410  48.6839810
  27.9558340  20.1884730  48.5960290  27.5499340  21.4739850  47.9071290
  18.4909640  16.1029160  46.9956760  18.3966510  15.4849910  46.2707630
  17.9107030  16.8295450  46.7686670  21.2571080  14.6602400  44.0284150
  20.8088380  14.6826660  43.1829700  20.6236280  14.2621420  44.6254450
  21.6630630  23.5556730  44.6496590  22.0818740  24.3989460  44.4772830
  20.7439260  23.6928770  44.4203370  23.9994530  21.2872910  46.0334430
  24.1190740  20.6914050  46.7729270  24.8588530  21.3242600  45.6135730
  26.3382430  21.8410100  44.6096940  25.8117650  22.3652720  44.0062080
  26.6813770  22.4737490  45.2406670  18.7368820  19.2303470  31.0546650
  18.5357880  18.3670830  31.4159990  18.5660870  19.1436830  30.1168250
  20.7663300  17.8294260  47.2910250  21.3562990  17.5210110  47.9788070
  19.9483540  17.3574010  47.4470150  25.5856730  17.4460070  47.5243270
  24.8972250  16.7841610  47.4593260  26.3062750  16.9998340  47.9691730
  26.2157130  14.0411700  33.5833530  26.4959420  13.1979600  33.9392950
  25.4422860  14.2734810  34.0972280  17.5351620  16.3304090  31.0424530
  17.8377520  16.3371520  30.1343680  18.2746210  15.9801950  31.5392190
  20.7536550  15.2738710  32.0280730  20.4058550  14.5962700  31.4483180
  20.9549320  14.8128220  32.8424120  22.9185590  30.2619460  33.6467330
  23.8136380  30.6004430  33.6686090  22.9503220  29.5398870  33.0191610
  16.5581750  25.6346510  31.8754330  16.9956620  26.1776180  32.5311910
  17.0429480  24.8093460  31.8850670  13.7727550  28.4235540  39.3274590
  14.1030560  27.5556600  39.0953230  14.2018550  28.6294060  40.1579550
  18.3689470  26.7544550  36.9876560  18.0685010  26.6309520  37.8880470
  18.2626960  25.8953140  36.5792290  31.1381390  26.5340950  31.6903240
  30.3074350  26.6017600  32.1610470  31.3153220  27.4245070  31.3870100
  30.5937850  23.2788430  34.1937440  31.3556760  23.8485080  34.2997130
  30.6092220  22.7115630  34.9645750  14.0942190  21.8026360  38.4245100
  13.4391030  21.5338000  37.7804800  14.9320140  21.6930840  37.9747080
  30.6457020  23.5722800  31.3509960  30.9205860  24.4801680  31.2229180
  30.4567760  23.5085330  32.2871950  27.0432630  16.5967650  32.6463590
  27.4617510  16.4098630  31.8060250  26.7368690  15.7446700  32.9566520
  30.5422360  21.5091790  36.3439390  30.1665960  20.7419720  35.9120680
  29.8125480  21.8914490  36.8314320  15.1318120  22.1878930  42.9648440
  15.4991160  22.1006330  43.8444460  14.5628940  21.4245480  42.8655300
  14.6834120  19.0988020  46.8706860  13.7890170  19.0654780  47.2100570
  15.2231670  19.2974810  47.6358110  28.3710050  15.8819740  48.7558610
  29.2480230  15.8903140  49.1392610  28.3830890  15.1450580  48.1450960
  13.3080270  19.0125290  34.3670430  12.4044350  19.2755490  34.1922090
  13.7920890  19.2836460  33.5870390  29.8173320  19.7349280  39.6446630
  30.3410800  19.2411930  39.0136800  30.4032740  19.8699640  40.3894200
  15.8507480  18.0690830  32.2764810  16.5599180  17.6474050  31.7912090
  15.1347420  18.1366060  31.6448160  15.4981640  14.1230160  31.3167460
  16.2209770  14.6639100  31.6348680  15.7706160  13.8493580  30.4409000
  29.3073290  18.9922630  35.5839040  29.8032410  18.7593500  36.3687920
  29.1089360  18.1534470  35.1676680  15.1873830  13.3736350  41.2190080
  15.8350020  12.8233730  40.7785240  15.6075670  13.6279500  42.0405890
  30.7360450  17.6283580  38.1176720  30.6259730  17.4739620  39.0558990
  31.4968040  17.1004520  37.8752130  29.0826170  13.5677710  44.5759720
  29.7198390  14.1811850  44.9418910  29.2301060  13.6038370  43.6308950
  31.6250720  15.4591500  31.3582860  32.5500030  15.3272680  31.1501150
  31.6026510  15.5384320  32.3119310  31.6989210  16.2302160  33.9839570
  30.9040710  16.1647280  34.5132480  31.9032490  17.1652800  33.9724920
  14.9405830  13.5292020  43.9615400  14.5920650  13.9855840  44.7273580
  14.6093530  12.6349150  44.0437830  16.5470200  26.7011620  48.1268590
  16.5039830  26.3304530  49.0083050  16.6781210  27.6389190  48.2670410
  22.4530650  14.7203900  47.4834820  22.3919540  15.3125730  48.2330230
  23.3931030  14.6129860  47.3385080  25.0905210  14.3773960  47.1227110
  25.7045620  14.6953250  46.4608190  25.6354770  13.8922550  47.7422970
  15.6126470  13.0568220  47.2366170  16.1609460  12.8756270  46.4732280
  15.6781780  12.2662330  47.7722480  25.8313250  12.9406100  43.4496400
  24.9573090  13.2741210  43.2469330  25.7224000  12.4679280  44.2748270
  26.7385230  15.1476970  44.8338120  26.4098590  14.3328730  44.4539850
  27.6867530  15.1046780  44.7103810  23.5788070  13.8575940  42.3889310
  22.7959860  14.3321440  42.6686070  23.2851000  12.9530770  42.2802490
  28.1309140  14.5599040  40.4338400  28.5717230  14.5044140  39.5860000
  27.8616730  15.4757050  40.5048580  29.9947710  14.1914280  38.4447220
  29.9336110  13.2475500  38.2978240  30.7739740  14.2994370  38.9900680
  14.3000460  30.3306640  37.4071170  14.1322500  29.6977320  38.1053060
  13.4334970  30.5366040  37.0565360  14.9228480  14.1623420  34.9103030
  15.6807840  14.2752300  34.3367060  14.4605650  14.9992620  34.8646460
  21.4642290  16.2762690  37.9005340  20.6516800  15.9019580  37.5601220
  21.9683930  15.5207770  38.2026530  25.9667270  12.9405140  39.1388410
  26.5696640  13.5125350  39.6136930  25.2260260  13.5044580  38.9162310
  29.1101870  13.3426700  34.4128690  29.3052500  14.2410150  34.6796120
  28.3231740  13.1113780  34.9061640  15.9063160  29.0239870  34.8521310
  15.3810780  29.4047900  34.1483270  15.8307740  29.6490640  35.5731020
  17.2953630  14.6887470  33.4505000  17.8246390  13.9017270  33.3212950
  17.9281950  15.3678660  33.6840530  19.4891470  14.4262610  36.5050390
  18.8594210  13.7249920  36.6720520  18.9496610  15.1866740  36.2883550
  22.4283420  31.0401840  49.1761000  23.3550730  30.8046110  49.2196960
  22.4133850  31.8673840  48.6947030  30.6628480  30.5827410  36.1735250
  30.8380670  29.8965150  35.5296170  29.9650050  31.1074460  35.7811920
  19.6147030  13.7046590  48.9402880  19.3331300  14.2080190  48.1763700
  19.9966730  12.9068340  48.5745010  18.5056130  30.9722250  33.7270560
  19.2374950  30.6881530  33.1794450  18.7649800  30.7335530  34.6169940
  17.6670920  27.0886980  33.7316890  17.0379800  27.5572080  34.2802720
  17.7818750  26.2436200  34.1663080  26.2162490  13.1200170  49.5183350
  26.1027940  13.4394780  50.4134870  27.0332230  13.5212680  49.2220630
  28.9960980  30.2671700  49.0002040  29.7886300  29.7720930  48.7928000
  29.2894130  30.9461840  49.6077650  25.1220640  21.1392640  19.8818090
  25.0414690  20.2247250  19.6109800  24.7085060  21.6359710  19.1757800
  23.2538680  22.9171660  21.7627360  22.4780780  22.4372100  22.0525930
  23.9051610  22.2377310  21.5883520  17.2704510  23.2291470  22.6403120
  16.4389390  22.9740180  23.0399630  17.8785490  23.3002240  23.3761040
  27.2746110  27.3231850  20.5426490  26.8127640  26.5519090  20.8713660
  28.0871660  27.3497920  21.0478940  17.2505770  27.2631560  22.8361140
  17.5533810  26.3729300  22.6571360  17.9949360  27.8201780  22.6083390
  15.6796460  18.1893360  16.4245510  14.7913160  18.5309330  16.3225390
  15.9637650  17.9893680  15.5326340  13.6429470  20.7899010  22.3085210
  14.2145580  20.0221210  22.3088850  13.6431010  21.0887770  21.3991820
  23.5009420  29.6089860  20.1630480  22.8820860  30.0647360  19.5924920
  24.3561200  29.7641320  19.7620180  22.6947670  25.5928850  21.7697520
  22.6255950  24.6518790  21.6086650  23.4567530  25.6830260  22.3420090
  14.8854340  16.1983370  24.0954140  14.7057180  15.3009120  24.3756900
  14.4834420  16.7455240  24.7701090  23.7252840  18.3999230  21.9966450
  24.1017660  17.5271110  21.8840120  23.6272350  18.7357930  21.1056890
  17.8557850  16.7724860  17.4583890  17.9624600  17.6728590  17.7652650
  16.9450210  16.7242830  17.1678540  27.5076960  15.8949670  18.9294790
  28.3286580  15.4046240  18.9720270  27.5411040  16.4847330  19.6826630
  15.5041010  18.6943870  22.7036480  16.1851120  18.9582240  23.3223880
  15.1889060  17.8544740  23.0374490  19.6965580  19.7411230  21.7909070
  20.2043800  20.2392200  22.4314090  20.2278820  18.9646430  21.6148430
  31.7976510  17.9116420  25.4938420  31.0928680  18.2998130  24.9753530
  32.0634430  18.6066710  26.0959350  17.9801680  14.3809790  26.0572490
  17.9820120  14.8982180  25.2518390  17.1505990  13.9039970  26.0342420
  24.3672770  24.4929100  17.5562390  23.7490040  24.9578550  16.9925110
  24.8796020  25.1856580  17.9731900  19.2304530  24.0204970  24.2345990
  18.8973910  24.6473890  24.8767060  19.4071210  24.5466850  23.4547660
  27.7438440  17.8350050  21.7022330  27.0394010  18.1234940  22.2825440
  28.1050600  18.6450160  21.3421890  17.6617010  16.0919750  24.0642940
  18.0033820  16.9361800  23.7696810  16.7232820  16.2403490  24.1808280
  18.4423630  25.9885770  26.0495170  19.0597630  26.6636850  25.7679620
  17.5816750  26.3973750  25.9582670  13.7355970  25.1785630  14.9302020
  13.3583950  25.6672730  14.1986920  13.9929040  25.8510910  15.5608550
  29.3601220  27.4525180  23.9649810  28.6764740  28.1224290  23.9566480
  29.8995510  27.6505830  23.1994670  30.8125360  17.2804840  22.0931540
  29.8650270  17.3143820  22.2246970  31.1375350  18.0943790  22.4780900
  21.3444900  13.5802020  20.3887530  21.6519880  13.0248910  19.6723030
  20.4145600  13.7146480  20.2060520  26.8959960  29.2969310  22.6794990
  26.9087120  28.8931600  21.8117250  26.3435180  30.0716600  22.5756420
  28.1905380  26.0185530  17.7685160  28.0801710  25.0759860  17.8934580
  28.1873630  26.3801170  18.6547920  26.2945400  24.1999150  24.0077600
  26.7114190  23.9859260  23.1731060  27.0185220  24.4571940  24.5786220
  23.7325660  21.6450850  17.1247650  22.8054940  21.5788230  17.3536120
  23.8850480  22.5830980  17.0102890  23.7194740  17.9167850  14.1214810
  22.7798410  18.0781810  14.2067270  24.0378000  18.6353530  13.5750800
  30.2407500  22.5986370  24.0993840  29.4126130  22.6679460  23.6243970
  30.8357980  23.1840680  23.6309670  27.7622950  23.2071150  17.6282900
  27.1435370  22.8690700  16.9809200  27.7447400  22.5630910  18.3362090
  27.2049510  19.3855690  25.0448710  26.7920690  20.2109400  25.2988700
  26.4725460  18.8000730  24.8525070  19.3382300  22.1715590  19.9067380
  18.9339300  21.4592840  19.4113280  19.4245420  21.8268830  20.7955420
  19.8064000  25.8583150  22.0706590  19.5092290  25.2528620  21.3914370
  20.7563820  25.8960460  21.9595950  18.0510920  18.9458800  23.6866420
  18.6025510  19.0554140  22.9119670  18.5654430  19.3196400  24.4021650
  27.8949610  29.4315020  25.7329690  27.4180170  30.2387210  25.5402300
  27.2111400  28.7793350  25.8855900  18.8982430  25.5964840  28.7214390
  18.0010960  25.8204810  28.9687790  18.9235300  25.7199780  27.7725790
  25.9387650  22.4457960  14.6355650  26.3780930  21.6080390  14.4893470
  26.6516070  23.0787360  14.7219790  17.7253650  22.4678160  27.2971760
  17.5861420  23.3400960  27.6659160  16.8435010  22.1250970  27.1519700
  24.0483030  27.3854030  18.6036890  24.4878940  28.1278360  18.1892280
  23.9869920  27.6280600  19.5275850  19.5234000  28.4099860  29.5056910
  19.4949430  28.8142810  28.6385340  19.3598970  27.4810220  29.3428510
  29.5204790  13.7000770  12.9496690  29.2077450  13.7927600  13.8495760
  30.2817260  14.2781800  12.8994120  16.0386930  21.0660570  17.4074030
  15.9184530  21.7922660  16.7955300  15.7287820  20.2963480  16.9301940
  31.4748820  29.1926960  30.8021080  31.9508540  29.6709850  31.4810160
  32.0955980  29.1244450  30.0766580  13.6772300  24.2375710  23.2142670
  13.7552720  24.3724480  22.2698390  14.2913980  23.5291600  23.4070790
  14.9219930  25.9375900  19.6248850  14.5148010  26.0790490  18.7702450
  15.8132940  25.6536060  19.4220060  30.8782070  26.3839810  27.9621090
  31.0045130  26.1451690  27.0438270  30.9203450  25.5524350  28.4343170
  24.7398810  30.0867810  26.5315900  25.2543480  29.9975820  27.3338330
  23.8967890  30.4327510  26.8243810  26.7153210  30.3723150  15.9599900
  26.5554350  30.0826090  16.8581730  26.5499920  29.5963280  15.4245130
  19.1941590  30.1521680  17.7371520  19.0184070  29.2357220  17.5239320
  18.3397330  30.5108970  17.9769320  26.4179340  27.8810710  14.5197900
  25.7244500  27.8788000  13.8600180  27.1602200  27.4570030  14.0892070
  25.9829270  29.5073420  18.5946390  26.4386220  28.7262800  18.9085010
  26.3221790  30.2180240  19.1387570  30.7306080  18.4372270  28.9270830
  30.1150350  18.9451940  28.3986290  30.4102500  17.5370600  28.8696770
  13.7331820  25.2789880  25.7537130  13.8962860  24.8095240  24.9356500
  14.1984270  24.7713440  26.4185970  18.5050590  14.4095640  20.7897700
  18.0618740  15.1905180  20.4582220  19.0635580  14.7325530  21.4968640
  22.7920400  17.2764160  26.3933020  22.3299770  17.4847180  27.2052960
  22.3898510  16.4623510  26.0903690  27.7924910  18.4973110  27.5229680
  26.9418500  18.1978860  27.8438750  27.6326700  18.7415120  26.6113500
  24.8874620  19.9974860  29.6228470  25.2128030  19.1638610  29.2830700
  25.6754950  20.5203380  29.7706800  21.6209410  14.0306340  15.6703530
  20.9963590  14.0266210  16.3956840  21.5339530  13.1637300  15.2739500
  20.5426490  14.9542970  22.6487300  20.8398820  15.8605800  22.5679320
  21.0912050  14.4661750  22.0346870  18.2964810  19.5329210  18.5178950
  18.0705730  19.3166380  19.4225570  17.5157340  19.9657670  18.1724920
  25.5262570  19.5392580  17.1169600  24.9271460  20.2628380  16.9333220
  26.0742180  19.4769360  16.3346050  20.7364020  20.4314790  29.1839220
  20.6407620  19.4909520  29.0339620  21.5796000  20.6529860  28.7887290
  24.1327440  18.1756120  19.1472880  24.5257010  18.4928320  18.3341570
  24.4944290  17.2968000  19.2617400  15.8674560  16.8428460  27.3373000
  15.4737950  17.6903670  27.5445780  15.1792960  16.2054830  27.5281640
  22.4419610  16.9263430  30.4069740  21.7517930  16.7335630  31.0415830
  23.1851910  17.2098070  30.9394040  13.1691610  14.7656920  21.3703080
  12.8804660  15.3359780  22.0828060  13.9137370  14.2861370  21.7334310
  13.3561840  18.7077040  12.5805800  13.2736510  19.6507800  12.7220790
  13.0044900  18.5651950  11.7018150  24.7182580  20.7661870  23.2423660
  23.9863700  21.2748680  23.5913760  24.3206920  19.9491850  22.9412440
  21.1559970  17.4416070  21.6476150  21.1596030  17.0006020  20.7980690
  22.0511090  17.7633400  21.7547970  17.0062350  17.3242560  20.6070360
  16.6662400  17.8017790  21.3637410  16.2439670  16.8707680  20.2471460
  21.2180120  18.4428150  14.6382910  21.3392940  18.4014630  15.5868730
  20.8328630  19.3052300  14.4829640  25.1808490  16.2195550  22.6546600
  25.1981230  16.6704200  23.4988450  24.9324070  15.3201190  22.8680040
  20.2301620  20.7529290  14.0366210  19.6618520  20.3047540  13.4102120
  20.9390620  21.1122070  13.5031360  28.6079240  13.6327730  28.4932980
  28.9325010  12.9017390  29.0190960  28.6435750  13.3141370  27.5913970
  15.3070800  24.6541310  27.9132940  14.9225590  24.0134980  28.5115900
  15.6182990  25.3577430  28.4827670  21.4567940  21.5017850  23.3941560
  21.8238070  21.0276420  24.1402900  21.2673000  22.3759420  23.7349900
  14.3208430  16.2461540  19.5235030  14.0355350  15.8817210  20.3613650
  14.2587290  15.5142000  18.9098170  19.2467310  20.5426490  25.7125770
  18.9424380  21.4218470  25.9376130  20.2013770  20.6026280  25.7483210
  17.7749100  24.7487480  16.3092620  17.0011360  24.2085100  16.1491340
  18.5043730  24.2294090  15.9710380  28.5337080  23.7452840  22.1019010
  29.2536200  24.2408130  21.7115120  28.3318900  23.0670730  21.4572880
  23.9947020  15.1390800  16.2448400  23.1811630  14.6403970  16.1693710
  23.8008970  15.9789050  15.8284750  23.9155880  23.8161900  27.9888010
  23.8493190  22.8957570  27.7345600  23.2861020  23.9137340  28.7032650
  26.7095410  19.5110450  14.5410560  27.5975030  19.8227680  14.3661900
  26.6800500  18.6382700  14.1491140  17.8186500  24.4167860  19.9471430
  18.3365170  23.6136120  19.8928320  17.3670520  24.3547000  20.7888260
  22.7056000  25.6834140  15.2198730  23.0471700  26.4276370  14.7242050
  21.8768710  25.9965260  15.5823560  15.3031040  21.3829230  26.8597130
  14.9445980  22.0483080  27.4470470  15.0085600  20.5512780  27.2309750
  18.5044160  21.8413470  29.7436680  18.2044300  21.9870650  28.8464500
  19.2755400  21.2818760  29.6510070  23.8472610  26.6382470  27.7391810
  23.8617150  25.7063430  27.5210720  23.1397710  26.7242230  28.3781580
  28.9809680  20.8222290  14.0090420  28.8973400  21.2536510  13.1586860
  29.7003870  21.2820640  14.4417240  30.0583820  23.2789810  27.0860390
  29.3332010  23.8718590  26.8889780  30.5859280  23.2713350  26.2873760
  30.0096930  27.6764550  16.7372550  29.3673090  27.0220170  17.0116270
  29.6227590  28.0819640  15.9613220  25.5883410  25.0049980  20.5844240
  25.9407230  24.4078110  19.9245610  24.7045740  24.6794210  20.7552490
  21.6746690  25.7647670  17.9914650  22.3617820  26.3116880  18.3722240
  20.8879110  26.3088400  18.0264260  13.8139090  21.3820490  13.4831730
  14.6833940  21.6645290  13.7667650  13.3229410  22.1956360  13.3680540
  20.9773900  22.7693700  17.6040010  21.4336680  23.5798950  17.8300200
  20.6262110  22.4516840  18.4358500  23.2806510  28.2800040  24.8332310
  23.9248730  28.4859420  25.5105730  23.6435950  27.5188440  24.3803160
  16.8785680  13.1131350  18.0762530  16.7500310  13.1049250  19.0247450
  16.0547700  13.4514440  17.7253540  24.5538590  26.2832390  23.5509760
  25.1960820  25.5825550  23.6641930  25.0787940  27.0630830  23.3706650
  28.3994310  26.5681010  13.2748900  28.1731890  25.8511450  13.8673540
  28.0090510  26.3193450  12.4370650  26.3276210  27.0827290  26.7545820
  26.6632450  27.6693980  27.4323740  25.4076550  26.9520000  26.9843610
  14.1810340  30.5947870  14.0493360  14.5407980  31.1937210  13.3950630
  14.0402680  31.1407760  14.8228390  13.8779610  14.8722470  27.5369230
  13.1638130  15.0719390  28.1421840  14.2974650  14.0962040  27.9084030
  27.9810560  24.4852950  14.9363060  27.6932260  24.9465640  15.7240940
  28.7762730  24.0250720  15.2047280  14.1652200  28.8602730  28.5235760
  14.2743320  27.9197470  28.3831150  13.5132760  29.1257480  27.8749490
  22.1564790  27.1318620  29.9233880  21.8361660  26.4127860  30.4679570
  21.4823150  27.8073690  29.9969940  20.1978960  27.9779070  14.8667030
  20.1889060  28.7108760  14.2511540  19.2777320  27.7310650  14.9593990
  15.7985600  23.1993960  15.6113790  15.1913550  23.9392860  15.6209090
  16.2734950  23.2893320  14.7851990  25.3718390  17.3644780  25.2870680
  25.7399210  16.5439990  25.6150250  24.5116590  17.4246670  25.7026330
  28.7380420  16.3201720  16.0958240  28.1093580  16.4247390  15.3816470
  28.2432340  16.5398500  16.8852120  23.1838560  28.0407310  13.5292220
  23.2850540  27.8371300  12.5994200  22.2840300  27.7865590  13.7340000
  20.7064450  18.5987670  17.5116120  19.9980600  19.0674010  17.9529730
  20.9908930  17.9409680  18.1461310  22.3320380  20.0184370  25.5108650
  22.8305630  20.4930190  26.1760500  22.4743330  19.0947890  25.7178680
  24.7379880  15.3238330  18.9511910  24.6147660  15.3424460  18.0021420
  25.6864440  15.3717270  19.0710310  21.8256670  30.5593630  18.2239890
  22.0798170  30.5215020  17.3019260  20.8769150  30.4326960  18.2168140
  18.9099470  16.9072750  14.8866830  19.7590000  17.3442900  14.8207020
  18.5430740  17.2193010  15.7138890  29.5387240  16.2352330  26.3537040
  29.0360840  16.9757730  26.6930850  30.3543900  16.6236330  26.0373830
  27.8309250  21.4785510  19.7998400  26.8899390  21.4935740  19.9746090
  28.1453320  20.6921470  20.2458700  17.8090890  23.1605110  13.3602360
  18.5754160  23.0486470  13.9227790  17.8865580  22.4643080  12.7079130
  16.5037650  20.5930180  14.0435250  16.5841240  19.6457690  14.1552650
  17.3957400  20.9237060  14.1495910  29.8334830  28.6494360  21.4752660
  29.9582250  29.4725530  21.9476470  30.7000390  28.4385090  21.1276810
  17.3052360  30.7425570  21.1469790  18.0414840  30.1941030  21.4178360
  17.6893280  31.6081580  21.0075780  14.1897840  26.8099140  17.0211300
  13.2637620  27.0520280  17.0116710  14.6554270  27.6373400  16.8996050
  16.3110640  29.9271640  30.3355370  17.1123370  30.2483690  30.7490770
  15.7962460  29.5667220  31.0575280  20.4154670  29.9155880  12.9695360
  21.2083280  30.2044710  12.5177150  19.8959020  29.4848050  12.2907840
  25.1475270  26.0351510  30.2830780  24.5413430  26.0583110  29.5426530
  24.8429380  25.3034550  30.8198030  26.5775640  29.7631800  28.8940190
  27.5297390  29.6789820  28.8440430  26.4303860  30.4273510  29.5673980
  29.4684840  29.1426010  14.3932100  29.1826350  28.7291150  13.5786280
  29.2704390  30.0713720  14.2732620  14.0308450  22.4145100  29.2791420
  14.5347470  21.8352380  29.8507650  13.2915870  22.6985330  29.8167790
  20.9332070  25.1359290  12.8337710  20.8282710  24.5211640  13.5599090
  20.7656290  24.6125180  12.0500720  21.0846390  23.8216090  28.8126940
  20.3192060  24.3901090  28.7281610  21.2662350  23.5292300  27.9195170
  24.1734800  24.1979320  13.4379700  23.6244900  24.6448620  14.0822440
  24.7954060  23.6928570  13.9617370  28.2269740  25.5521420  29.3701960
  28.9679210  25.8897180  28.8669420  27.4642420  25.7213480  28.8171730
  16.0631530  20.5574690  30.1741490  16.1036870  20.2588560  31.0826720
  16.9177030  20.9582300  30.0149010  19.8409920  23.1570240  15.3345000
  20.2626340  22.9910110  16.1776390  19.9660760  22.3470470  14.8400140
  18.0037340  19.1366790  28.1415980  17.4733800  18.6457740  27.5139320
  18.6725410  19.5650990  27.6073910  22.3537560  22.1807850  12.5822100
  22.8743220  21.4656870  12.2163250  23.0005960  22.8193720  12.8822610
  26.9015400  23.6036250  27.9057170  27.3156420  23.7581330  28.7547590
  25.9666400  23.7291470  28.0682950  27.3737570  20.9432410  29.9096320
  27.9558340  20.1884730  29.8216800  27.5499340  21.4739850  29.1327800
  18.4909640  16.1029160  28.2213270  18.3966510  15.4849910  27.4964140
  17.9107030  16.8295450  27.9943180  21.2571080  14.6602400  25.2540660
  20.8088380  14.6826660  24.4086210  20.6236280  14.2621420  25.8510960
  21.6630630  23.5556730  25.8753100  22.0818740  24.3989460  25.7029340
  20.7439260  23.6928770  25.6459880  23.9994530  21.2872910  27.2590940
  24.1190740  20.6914050  27.9985780  24.8588530  21.3242600  26.8392240
  26.3382430  21.8410100  25.8353450  25.8117650  22.3652720  25.2318590
  26.6813770  22.4737490  26.4663180  18.7368820  19.2303470  12.2803160
  18.5357880  18.3670830  12.6416500  18.5660870  19.1436830  11.3424760
  19.5138050  29.8609740  26.9910830  18.9759140  30.5855800  26.6719530
  19.7672010  29.3840080  26.2008170  20.7663300  17.8294260  28.5166760
  21.3562990  17.5210110  29.2044580  19.9483540  17.3574010  28.6726660
  25.5856730  17.4460070  28.7499780  24.8972250  16.7841610  28.6849770
  26.3062750  16.9998340  29.1948240  26.2157130  14.0411700  14.8090040
  26.4959420  13.1979600  15.1649460  25.4422860  14.2734810  15.3228790
  17.5351620  16.3304090  12.2681040  17.8377520  16.3371520  11.3600190
  18.2746210  15.9801950  12.7648700  22.3700260  31.0960950  27.2497480
  22.2958960  31.9996090  27.5569850  21.4679100  30.7772850  27.2219550
  20.7536550  15.2738710  13.2537240  20.4058550  14.5962700  12.6739690
  20.9549320  14.8128220  14.0680630  22.9185590  30.2619460  14.8723840
  23.8136380  30.6004430  14.8942600  22.9503220  29.5398870  14.2448120
  16.5581750  25.6346510  13.1010840  16.9956620  26.1776180  13.7568420
  17.0429480  24.8093460  13.1107180  13.7727550  28.4235540  20.5531100
  14.1030560  27.5556600  20.3209740  14.2018550  28.6294060  21.3836060
  18.3689470  26.7544550  18.2133070  18.0685010  26.6309520  19.1136980
  18.2626960  25.8953140  17.8048800  14.2617760  29.2906130  23.2912730
  13.8248750  29.4706930  24.1236880  14.8295440  30.0480750  23.1494450
  29.8979940  28.7923130  27.5790040  29.2981930  28.8515690  26.8353960
  30.0273840  27.8528110  27.7086890  31.1381390  26.5340950  12.9159750
  30.3074350  26.6017600  13.3866980  31.3153220  27.4245070  12.6126610
  30.5937850  23.2788430  15.4193950  31.3556760  23.8485080  15.5253640
  30.6092220  22.7115630  16.1902260  14.0942190  21.8026360  19.6501610
  13.4391030  21.5338000  19.0061310  14.9320140  21.6930840  19.2003590
  31.5997820  24.1338530  20.2635880  31.9706650  23.3505850  19.8571850
  32.2399750  24.8227630  20.0853180  28.5831580  25.5175110  25.6766200
  27.7691420  25.9472270  25.9391990  28.9905780  26.1293520  25.0635250
  30.6457020  23.5722800  12.5766470  30.9205860  24.4801680  12.4485690
  30.4567760  23.5085330  13.5128460  27.0432630  16.5967650  13.8720100
  27.4617510  16.4098630  13.0316760  26.7368690  15.7446700  14.1823030
  30.5422360  21.5091790  17.5695900  30.1665960  20.7419720  17.1377190
  29.8125480  21.8914490  18.0570830  15.1318120  22.1878930  24.1904950
  15.4991160  22.1006330  25.0700970  14.5628940  21.4245480  24.0911810
  29.9321980  20.6563310  27.2035420  29.7008070  20.4276060  26.3033370
  30.1926530  21.5762860  27.1580310  14.6834120  19.0988020  28.0963370
  13.7890170  19.0654780  28.4357080  15.2231670  19.2974810  28.8614620
  28.3710050  15.8819740  29.9815120  29.2480230  15.8903140  30.3649120
  28.3830890  15.1450580  29.3707470  13.3080270  19.0125290  15.5926940
  12.4044350  19.2755490  15.4178600  13.7920890  19.2836460  14.8126900
  29.8173320  19.7349280  20.8703140  30.3410800  19.2411930  20.2393310
  30.4032740  19.8699640  21.6150710  29.9963040  19.8189150  24.3922690
  29.0465750  19.7852690  24.5067680  30.1776050  20.7289260  24.1572460
  15.8507480  18.0690830  13.5021320  16.5599180  17.6474050  13.0168600
  15.1347420  18.1366060  12.8704670  15.4981640  14.1230160  12.5423970
  16.2209770  14.6639100  12.8605190  15.7706160  13.8493580  11.6665510
  29.3073290  18.9922630  16.8095550  29.8032410  18.7593500  17.5944430
  29.1089360  18.1534470  16.3933190  15.1873830  13.3736350  22.4446590
  15.8350020  12.8233730  22.0041750  15.6075670  13.6279500  23.2662400
  30.7360450  17.6283580  19.3433230  30.6259730  17.4739620  20.2815500
  31.4968040  17.1004520  19.1008640  29.0826170  13.5677710  25.8016230
  29.7198390  14.1811850  26.1675420  29.2301060  13.6038370  24.8565460
  31.6250720  15.4591500  12.5839370  32.5500030  15.3272680  12.3757660
  31.6026510  15.5384320  13.5375820  31.6989210  16.2302160  15.2096080
  30.9040710  16.1647280  15.7388990  31.9032490  17.1652800  15.1981430
  28.6407630  30.2693710  19.2034470  29.2366700  29.9478280  18.5268890
  28.8985780  29.7965530  19.9947740  14.9405830  13.5292020  25.1871910
  14.5920650  13.9855840  25.9530090  14.6093530  12.6349150  25.2694340
  16.5470200  26.7011620  29.3525100  16.5039830  26.3304530  30.2339560
  16.6781210  27.6389190  29.4926920  20.2476230  28.2571210  24.9534820
  20.0067590  28.5245770  24.0665340  21.1878870  28.4276940  25.0085680
  22.4530650  14.7203900  28.7091330  22.3919540  15.3125730  29.4586740
  23.3931030  14.6129860  28.5641590  25.0905210  14.3773960  28.3483620
  25.7045620  14.6953250  27.6864700  25.6354770  13.8922550  28.9679480
  31.5080390  30.2765590  25.7545460  31.0138670  30.6734460  25.0372590
  30.8993680  29.6514800  26.1482740  15.6126470  13.0568220  28.4622680
  16.1609460  12.8756270  27.6988790  15.6781780  12.2662330  28.9978990
  16.3858230  29.6473870  26.4722880  15.7918550  29.5158570  27.2112920
  16.3782070  28.8112010  26.0064980  25.8313250  12.9406100  24.6752910
  24.9573090  13.2741210  24.4725840  25.7224000  12.4679280  25.5004780
  26.7385230  15.1476970  26.0594630  26.4098590  14.3328730  25.6796360
  27.6867530  15.1046780  25.9360320  29.1919840  30.9189010  23.0332200
  28.7322810  31.6704820  22.6590220  28.5632300  30.1995480  22.9747000
  16.0170460  27.0132250  25.4230920  15.2904520  26.3937540  25.3556870
  16.0779610  27.4072860  24.5529000  19.6215560  29.2277250  22.2080330
  20.1380580  28.6164610  21.6828590  20.2712940  29.7306030  22.6991340
  22.3611060  30.1185740  23.0349310  22.6488870  29.8640040  22.1582320
  22.8734280  29.5663100  23.6254880  23.5788070  13.8575940  23.6145820
  22.7959860  14.3321440  23.8942580  23.2851000  12.9530770  23.5059000
  28.1309140  14.5599040  21.6594910  28.5717230  14.5044140  20.8116510
  27.8616730  15.4757050  21.7305090  29.9947710  14.1914280  19.6703730
  29.9336110  13.2475500  19.5234750  30.7739740  14.2994370  20.2157190
  14.3000460  30.3306640  18.6327680  14.1322500  29.6977320  19.3309570
  13.4334970  30.5366040  18.2821870  14.9228480  14.1623420  16.1359540
  15.6807840  14.2752300  15.5623570  14.4605650  14.9992620  16.0902970
  21.4642290  16.2762690  19.1261850  20.6516800  15.9019580  18.7857730
  21.9683930  15.5207770  19.4283040  25.9667270  12.9405140  20.3644920
  26.5696640  13.5125350  20.8393440  25.2260260  13.5044580  20.1418820
  29.1101870  13.3426700  15.6385200  29.3052500  14.2410150  15.9052630
  28.3231740  13.1113780  16.1318150  15.9063160  29.0239870  16.0777820
  15.3810780  29.4047900  15.3739780  15.8307740  29.6490640  16.7987530
  17.2953630  14.6887470  14.6761510  17.8246390  13.9017270  14.5469460
  17.9281950  15.3678660  14.9097040  19.4891470  14.4262610  17.7306900
  18.8594210  13.7249920  17.8977030  18.9496610  15.1866740  17.5140060
  22.4283420  31.0401840  30.4017510  23.3550730  30.8046110  30.4453470
  22.4133850  31.8673840  29.9203540  30.6628480  30.5827410  17.3991760
  30.8380670  29.8965150  16.7552680  29.9650050  31.1074460  17.0068430
  19.6147030  13.7046590  30.1659390  19.3331300  14.2080190  29.4020210
  19.9966730  12.9068340  29.8001520  18.5056130  30.9722250  14.9527070
  19.2374950  30.6881530  14.4050960  18.7649800  30.7335530  15.8426450
  17.6670920  27.0886980  14.9573400  17.0379800  27.5572080  15.5059230
  17.7818750  26.2436200  15.3919590  26.2162490  13.1200170  30.7439860
  26.1027940  13.4394780  31.6391380  27.0332230  13.5212680  30.4477140
  28.9960980  30.2671700  30.2258550  29.7886300  29.7720930  30.0184510
  29.2894130  30.9461840  30.8334160  23.2538680  22.9171660   2.9883870
  22.4780780  22.4372100   3.2782440  23.9051610  22.2377310   2.8140030
  17.2704510  23.2291470   3.8659630  16.4389390  22.9740180   4.2656140
  17.8785490  23.3002240   4.6017550  27.2746110  27.3231850   1.7683000
  26.8127640  26.5519090   2.0970170  28.0871660  27.3497920   2.2735450
  17.2505770  27.2631560   4.0617650  17.5533810  26.3729300   3.8827870
  17.9949360  27.8201780   3.8339900  13.6429470  20.7899010   3.5341720
  14.2145580  20.0221210   3.5345360  13.6431010  21.0887770   2.6248330
  22.6947670  25.5928850   2.9954030  22.6255950  24.6518790   2.8343160
  23.4567530  25.6830260   3.5676600  14.8854340  16.1983370   5.3210650
  14.7057180  15.3009120   5.6013410  14.4834420  16.7455240   5.9957600
  23.7252840  18.3999230   3.2222960  24.1017660  17.5271110   3.1096630
  23.6272350  18.7357930   2.3313400  15.5041010  18.6943870   3.9292990
  16.1851120  18.9582240   4.5480390  15.1889060  17.8544740   4.2631000
  19.6965580  19.7411230   3.0165580  20.2043800  20.2392200   3.6570600
  20.2278820  18.9646430   2.8404940  31.7976510  17.9116420   6.7194930
  31.0928680  18.2998130   6.2010040  32.0634430  18.6066710   7.3215860
  17.9801680  14.3809790   7.2829000  17.9820120  14.8982180   6.4774900
  17.1505990  13.9039970   7.2598930  19.2304530  24.0204970   5.4602500
  18.8973910  24.6473890   6.1023570  19.4071210  24.5466850   4.6804170
  27.7438440  17.8350050   2.9278840  27.0394010  18.1234940   3.5081950
  28.1050600  18.6450160   2.5678400  17.6617010  16.0919750   5.2899450
  18.0033820  16.9361800   4.9953320  16.7232820  16.2403490   5.4064790
  18.4423630  25.9885770   7.2751680  19.0597630  26.6636850   6.9936130
  17.5816750  26.3973750   7.1839180  29.3601220  27.4525180   5.1906320
  28.6764740  28.1224290   5.1822990  29.8995510  27.6505830   4.4251180
  30.8125360  17.2804840   3.3188050  29.8650270  17.3143820   3.4503480
  31.1375350  18.0943790   3.7037410  26.8959960  29.2969310   3.9051500
  26.9087120  28.8931600   3.0373760  26.3435180  30.0716600   3.8012930
  26.2945400  24.1999150   5.2334110  26.7114190  23.9859260   4.3987570
  27.0185220  24.4571940   5.8042730  30.2407500  22.5986370   5.3250350
  29.4126130  22.6679460   4.8500480  30.8357980  23.1840680   4.8566180
  27.2049510  19.3855690   6.2705220  26.7920690  20.2109400   6.5245210
  26.4725460  18.8000730   6.0781580  19.8064000  25.8583150   3.2963100
  19.5092290  25.2528620   2.6170880  20.7563820  25.8960460   3.1852460
  18.0510920  18.9458800   4.9122930  18.6025510  19.0554140   4.1376180
  18.5654430  19.3196400   5.6278160  27.8949610  29.4315020   6.9586200
  27.4180170  30.2387210   6.7658810  27.2111400  28.7793350   7.1112410
  18.8982430  25.5964840   9.9470900  18.0010960  25.8204810  10.1944300
  18.9235300  25.7199780   8.9982300  17.7253650  22.4678160   8.5228270
  17.5861420  23.3400960   8.8915670  16.8435010  22.1250970   8.3776210
  19.5234000  28.4099860  10.7313420  19.4949430  28.8142810   9.8641850
  19.3598970  27.4810220  10.5685020  31.4748820  29.1926960  12.0277590
  31.9508540  29.6709850  12.7066670  32.0955980  29.1244450  11.3023090
  13.6772300  24.2375710   4.4399180  13.7552720  24.3724480   3.4954900
  14.2913980  23.5291600   4.6327300  30.8782070  26.3839810   9.1877600
  31.0045130  26.1451690   8.2694780  30.9203450  25.5524350   9.6599680
  24.7398810  30.0867810   7.7572410  25.2543480  29.9975820   8.5594840
  23.8967890  30.4327510   8.0500320  30.7306080  18.4372270  10.1527340
  30.1150350  18.9451940   9.6242800  30.4102500  17.5370600  10.0953280
  13.7331820  25.2789880   6.9793640  13.8962860  24.8095240   6.1613010
  14.1984270  24.7713440   7.6442480  18.5050590  14.4095640   2.0154210
  18.0618740  15.1905180   1.6838730  19.0635580  14.7325530   2.7225150
  22.7920400  17.2764160   7.6189530  22.3299770  17.4847180   8.4309470
  22.3898510  16.4623510   7.3160200  27.7924910  18.4973110   8.7486190
  26.9418500  18.1978860   9.0695260  27.6326700  18.7415120   7.8370010
  24.8874620  19.9974860  10.8484980  25.2128030  19.1638610  10.5087210
  25.6754950  20.5203380  10.9963310  20.5426490  14.9542970   3.8743810
  20.8398820  15.8605800   3.7935830  21.0912050  14.4661750   3.2603380
  20.7364020  20.4314790  10.4095730  20.6407620  19.4909520  10.2596130
  21.5796000  20.6529860  10.0143800  15.8674560  16.8428460   8.5629510
  15.4737950  17.6903670   8.7702290  15.1792960  16.2054830   8.7538150
  22.4419610  16.9263430  11.6326250  21.7517930  16.7335630  12.2672340
  23.1851910  17.2098070  12.1650550  13.1691610  14.7656920   2.5959590
  12.8804660  15.3359780   3.3084570  13.9137370  14.2861370   2.9590820
  24.7182580  20.7661870   4.4680170  23.9863700  21.2748680   4.8170270
  24.3206920  19.9491850   4.1668950  21.1559970  17.4416070   2.8732660
  21.1596030  17.0006020   2.0237200  22.0511090  17.7633400   2.9804480
  17.0062350  17.3242560   1.8326870  16.6662400  17.8017790   2.5893920
  16.2439670  16.8707680   1.4727970  25.1808490  16.2195550   3.8803110
  25.1981230  16.6704200   4.7244960  24.9324070  15.3201190   4.0936550
  28.6079240  13.6327730   9.7189490  28.9325010  12.9017390  10.2447470
  28.6435750  13.3141370   8.8170480  15.3070800  24.6541310   9.1389450
  14.9225590  24.0134980   9.7372410  15.6182990  25.3577430   9.7084180
  21.4567940  21.5017850   4.6198070  21.8238070  21.0276420   5.3659410
  21.2673000  22.3759420   4.9606410  19.2467310  20.5426490   6.9382280
  18.9424380  21.4218470   7.1632640  20.2013770  20.6026280   6.9739720
  28.5337080  23.7452840   3.3275520  29.2536200  24.2408130   2.9371630
  28.3318900  23.0670730   2.6829390  23.9155880  23.8161900   9.2144520
  23.8493190  22.8957570   8.9602110  23.2861020  23.9137340   9.9289160
  15.3031040  21.3829230   8.0853640  14.9445980  22.0483080   8.6726980
  15.0085600  20.5512780   8.4566260  18.5044160  21.8413470  10.9693190
  18.2044300  21.9870650  10.0721010  19.2755400  21.2818760  10.8766580
  23.8472610  26.6382470   8.9648320  23.8617150  25.7063430   8.7467230
  23.1397710  26.7242230   9.6038090  23.2806510  28.2800040   6.0588820
  23.9248730  28.4859420   6.7362240  23.6435950  27.5188440   5.6059670
  24.5538590  26.2832390   4.7766270  25.1960820  25.5825550   4.8898440
  25.0787940  27.0630830   4.5963160  26.3276210  27.0827290   7.9802330
  26.6632450  27.6693980   8.6580250  25.4076550  26.9520000   8.2100120
  13.8779610  14.8722470   8.7625740  13.1638130  15.0719390   9.3678350
  14.2974650  14.0962040   9.1340540  14.1652200  28.8602730   9.7492270
  14.2743320  27.9197470   9.6087660  13.5132760  29.1257480   9.1006000
  22.1564790  27.1318620  11.1490390  21.8361660  26.4127860  11.6936080
  21.4823150  27.8073690  11.2226450  25.3718390  17.3644780   6.5127190
  25.7399210  16.5439990   6.8406760  24.5116590  17.4246670   6.9282840
  22.3320380  20.0184370   6.7365160  22.8305630  20.4930190   7.4017010
  22.4743330  19.0947890   6.9435190  29.5387240  16.2352330   7.5793550
  29.0360840  16.9757730   7.9187360  30.3543900  16.6236330   7.2630340
  29.8334830  28.6494360   2.7009170  29.9582250  29.4725530   3.1732980
  30.7000390  28.4385090   2.3533320  17.3052360  30.7425570   2.3726300
  18.0414840  30.1941030   2.6434870  17.6893280  31.6081580   2.2332290
  16.3110640  29.9271640  11.5611880  17.1123370  30.2483690  11.9747280
  15.7962460  29.5667220  12.2831790  25.1475270  26.0351510  11.5087290
  24.5413430  26.0583110  10.7683040  24.8429380  25.3034550  12.0454540
  26.5775640  29.7631800  10.1196700  27.5297390  29.6789820  10.0696940
  26.4303860  30.4273510  10.7930490  14.0308450  22.4145100  10.5047930
  14.5347470  21.8352380  11.0764160  13.2915870  22.6985330  11.0424300
  21.0846390  23.8216090  10.0383450  20.3192060  24.3901090   9.9538120
  21.2662350  23.5292300   9.1451680  28.2269740  25.5521420  10.5958470
  28.9679210  25.8897180  10.0925930  27.4642420  25.7213480  10.0428240
  16.0631530  20.5574690  11.3998000  16.1036870  20.2588560  12.3083230
  16.9177030  20.9582300  11.2405520  18.0037340  19.1366790   9.3672490
  17.4733800  18.6457740   8.7395830  18.6725410  19.5650990   8.8330420
  26.9015400  23.6036250   9.1313680  27.3156420  23.7581330   9.9804100
  25.9666400  23.7291470   9.2939460  27.3737570  20.9432410  11.1352830
  27.9558340  20.1884730  11.0473310  27.5499340  21.4739850  10.3584310
  18.4909640  16.1029160   9.4469780  18.3966510  15.4849910   8.7220650
  17.9107030  16.8295450   9.2199690  21.2571080  14.6602400   6.4797170
  20.8088380  14.6826660   5.6342720  20.6236280  14.2621420   7.0767470
  21.6630630  23.5556730   7.1009610  22.0818740  24.3989460   6.9285850
  20.7439260  23.6928770   6.8716390  23.9994530  21.2872910   8.4847450
  24.1190740  20.6914050   9.2242290  24.8588530  21.3242600   8.0648750
  26.3382430  21.8410100   7.0609960  25.8117650  22.3652720   6.4575100
  26.6813770  22.4737490   7.6919690  19.5138050  29.8609740   8.2167340
  18.9759140  30.5855800   7.8976040  19.7672010  29.3840080   7.4264680
  20.7663300  17.8294260   9.7423270  21.3562990  17.5210110  10.4301090
  19.9483540  17.3574010   9.8983170  25.5856730  17.4460070   9.9756290
  24.8972250  16.7841610   9.9106280  26.3062750  16.9998340  10.4204750
  22.3700260  31.0960950   8.4753990  22.2958960  31.9996090   8.7826360
  21.4679100  30.7772850   8.4476060  14.2617760  29.2906130   4.5169240
  13.8248750  29.4706930   5.3493390  14.8295440  30.0480750   4.3750960
  29.8979940  28.7923130   8.8046550  29.2981930  28.8515690   8.0610470
  30.0273840  27.8528110   8.9343400  28.5831580  25.5175110   6.9022710
  27.7691420  25.9472270   7.1648500  28.9905780  26.1293520   6.2891760
  15.1318120  22.1878930   5.4161460  15.4991160  22.1006330   6.2957480
  14.5628940  21.4245480   5.3168320  29.9321980  20.6563310   8.4291930
  29.7008070  20.4276060   7.5289880  30.1926530  21.5762860   8.3836820
  14.6834120  19.0988020   9.3219880  13.7890170  19.0654780   9.6613590
  15.2231670  19.2974810  10.0871130  28.3710050  15.8819740  11.2071630
  29.2480230  15.8903140  11.5905630  28.3830890  15.1450580  10.5963980
  29.8173320  19.7349280   2.0959650  30.3410800  19.2411930   1.4649820
  30.4032740  19.8699640   2.8407220  29.9963040  19.8189150   5.6179200
  29.0465750  19.7852690   5.7324190  30.1776050  20.7289260   5.3828970
  15.1873830  13.3736350   3.6703100  15.8350020  12.8233730   3.2298260
  15.6075670  13.6279500   4.4918910  29.0826170  13.5677710   7.0272740
  29.7198390  14.1811850   7.3931930  29.2301060  13.6038370   6.0821970
  14.9405830  13.5292020   6.4128420  14.5920650  13.9855840   7.1786600
  14.6093530  12.6349150   6.4950850  16.5470200  26.7011620  10.5781610
  16.5039830  26.3304530  11.4596070  16.6781210  27.6389190  10.7183430
  20.2476230  28.2571210   6.1791330  20.0067590  28.5245770   5.2921850
  21.1878870  28.4276940   6.2342190  22.4530650  14.7203900   9.9347840
  22.3919540  15.3125730  10.6843250  23.3931030  14.6129860   9.7898100
  25.0905210  14.3773960   9.5740130  25.7045620  14.6953250   8.9121210
  25.6354770  13.8922550  10.1935990  31.5080390  30.2765590   6.9801970
  31.0138670  30.6734460   6.2629100  30.8993680  29.6514800   7.3739250
  15.6126470  13.0568220   9.6879190  16.1609460  12.8756270   8.9245300
  15.6781780  12.2662330  10.2235500  16.3858230  29.6473870   7.6979390
  15.7918550  29.5158570   8.4369430  16.3782070  28.8112010   7.2321490
  25.8313250  12.9406100   5.9009420  24.9573090  13.2741210   5.6982350
  25.7224000  12.4679280   6.7261290  26.7385230  15.1476970   7.2851140
  26.4098590  14.3328730   6.9052870  27.6867530  15.1046780   7.1616830
  29.1919840  30.9189010   4.2588710  28.7322810  31.6704820   3.8846730
  28.5632300  30.1995480   4.2003510  16.0170460  27.0132250   6.6487430
  15.2904520  26.3937540   6.5813380  16.0779610  27.4072860   5.7785510
  19.6215560  29.2277250   3.4336840  20.1380580  28.6164610   2.9085100
  20.2712940  29.7306030   3.9247850  22.3611060  30.1185740   4.2605820
  22.6488870  29.8640040   3.3838830  22.8734280  29.5663100   4.8511390
  23.5788070  13.8575940   4.8402330  22.7959860  14.3321440   5.1199090
  23.2851000  12.9530770   4.7315510  28.1309140  14.5599040   2.8851420
  28.5717230  14.5044140   2.0373020  27.8616730  15.4757050   2.9561600
  22.4283420  31.0401840  11.6274020  23.3550730  30.8046110  11.6709980
  22.4133850  31.8673840  11.1460050  19.6147030  13.7046590  11.3915900
  19.3331300  14.2080190  10.6276720  19.9966730  12.9068340  11.0258030
  26.2162490  13.1200170  11.9696370  26.1027940  13.4394780  12.8647890
  27.0332230  13.5212680  11.6733650  28.9960980  30.2671700  11.4515060
  29.7886300  29.7720930  11.2441020  29.2894130  30.9461840  12.0590670
  25.1220640   2.3649150  57.4305070  25.0414690   1.4503760  57.1596780
  24.7085060   2.8616220  56.7244780  23.2538680   4.1428170  59.3114340
  22.4780780   3.6628610  59.6012910  23.9051610   3.4633820  59.1370500
  27.2746110   8.5488360  58.0913470  26.8127640   7.7775600  58.4200640
  28.0871660   8.5754430  58.5965920  13.6429470   2.0155520  59.8572190
  14.2145580   1.2477720  59.8575830  13.6431010   2.3144280  58.9478800
  23.5009420  10.8346370  57.7117460  22.8820860  11.2903870  57.1411900
  24.3561200  10.9897830  57.3107160  22.6947670   6.8185360  59.3184500
  22.6255950   5.8775300  59.1573630  23.4567530   6.9086770  59.8907070
  24.3672770   5.7185610  55.1049370  23.7490040   6.1835060  54.5412090
  24.8796020   6.4113090  55.5218880  13.7355970   6.4042140  52.4789000
  13.3583950   6.8929240  51.7473900  13.9929040   7.0767420  53.1095530
  26.8959960  10.5225820  60.2281970  26.9087120  10.1188110  59.3604230
  26.3435180  11.2973110  60.1243400  28.1905380   7.2442040  55.3172140
  28.0801710   6.3016370  55.4421560  28.1873630   7.6057680  56.2034900
  23.7325660   2.8707360  54.6734630  22.8054940   2.8044740  54.9023100
  23.8850480   3.8087490  54.5589870  27.7622950   4.4327660  55.1769880
  27.1435370   4.0947210  54.5296180  27.7447400   3.7887420  55.8849070
  19.3382300   3.3972100  57.4554360  18.9339300   2.6849350  56.9600260
  19.4245420   3.0525340  58.3442400  19.8064000   7.0839660  59.6193570
  19.5092290   6.4785130  58.9401350  20.7563820   7.1216970  59.5082930
  25.9387650   3.6714470  52.1842630  26.3780930   2.8336900  52.0380450
  26.6516070   4.3043870  52.2706770  24.0483030   8.6110540  56.1523870
  24.4878940   9.3534870  55.7379260  23.9869920   8.8537110  57.0762830
  16.0386930   2.2917080  54.9561010  15.9184530   3.0179170  54.3442280
  15.7287820   1.5219990  54.4788920  14.9219930   7.1632410  57.1735830
  14.5148010   7.3047000  56.3189430  15.8132940   6.8792570  56.9707040
  26.7153210  11.5979660  53.5086880  26.5554350  11.3082600  54.4068710
  26.5499920  10.8219790  52.9732110  19.1941590  11.3778190  55.2858500
  19.0184070  10.4613730  55.0726300  18.3397330  11.7365480  55.5256300
  26.4179340   9.1067220  52.0684880  25.7244500   9.1044510  51.4087160
  27.1602200   8.6826540  51.6379050  25.9829270  10.7329930  56.1433370
  26.4386220   9.9519310  56.4571990  26.3221790  11.4436750  56.6874550
  20.2301620   1.9785800  51.5853190  19.6618520   1.5304050  50.9589100
  20.9390620   2.3378580  51.0518340  17.7749100   5.9743990  53.8579600
  17.0011360   5.4341610  53.6978320  18.5043730   5.4550600  53.5197360
  28.5337080   4.9709350  59.6505990  29.2536200   5.4664640  59.2602100
  28.3318900   4.2927240  59.0059860  17.8186500   5.6424370  57.4958410
  18.3365170   4.8392630  57.4415300  17.3670520   5.5803510  58.3375240
  22.7056000   6.9090650  52.7685710  23.0471700   7.6532880  52.2729030
  21.8768710   7.2221770  53.1310540  28.9809680   2.0478800  51.5577400
  28.8973400   2.4793020  50.7073840  29.7003870   2.5077150  51.9904220
  30.0096930   8.9021060  54.2859530  29.3673090   8.2476680  54.5603250
  29.6227590   9.3076150  53.5100200  25.5883410   6.2306490  58.1331220
  25.9407230   5.6334620  57.4732590  24.7045740   5.9050720  58.3039470
  21.6746690   6.9904180  55.5401630  22.3617820   7.5373390  55.9209220
  20.8879110   7.5344910  55.5751240  13.8139090   2.6077000  51.0318710
  14.6833940   2.8901800  51.3154630  13.3229410   3.4212870  50.9167520
  20.9773900   3.9950210  55.1526990  21.4336680   4.8055460  55.3787180
  20.6262110   3.6773350  55.9845480  28.3994310   7.7937520  50.8235880
  28.1731890   7.0767960  51.4160520  28.0090510   7.5449960  49.9857630
  14.1810340  11.8204380  51.5980340  14.5407980  12.4193720  50.9437610
  14.0402680  12.3664270  52.3715370  27.9810560   5.7109460  52.4850040
  27.6932260   6.1722150  53.2727920  28.7762730   5.2507230  52.7534260
  20.1978960   9.2035580  52.4154010  20.1889060   9.9365270  51.7998520
  19.2777320   8.9567160  52.5080970  15.7985600   4.4250470  53.1600770
  15.1913550   5.1649370  53.1696070  16.2734950   4.5149830  52.3338970
  23.1838560   9.2663820  51.0779200  23.2850540   9.0627810  50.1481180
  22.2840300   9.0122100  51.2826980  21.8256670  11.7850140  55.7726870
  22.0798170  11.7471530  54.8506240  20.8769150  11.6583470  55.7655120
  27.8309250   2.7042020  57.3485380  26.8899390   2.7192250  57.5233070
  28.1453320   1.9177980  57.7945680  17.8090890   4.3861620  50.9089340
  18.5754160   4.2742980  51.4714770  17.8865580   3.6899590  50.2566110
  29.8334830   9.8750870  59.0239640  29.9582250  10.6982040  59.4963450
  30.7000390   9.6641600  58.6763790  17.3052360  11.9682080  58.6956770
  18.0414840  11.4197540  58.9665340  17.6893280  12.8338090  58.5562760
  14.1897840   8.0355650  54.5698280  13.2637620   8.2776790  54.5603690
  14.6554270   8.8629910  54.4483030  20.4154670  11.1412390  50.5182340
  21.2083280  11.4301220  50.0664130  19.8959020  10.7104560  49.8394820
  29.4684840  10.3682520  51.9419080  29.1826350   9.9547660  51.1273260
  29.2704390  11.2970230  51.8219600  20.9332070   6.3615800  50.3824690
  20.8282710   5.7468150  51.1086070  20.7656290   5.8381690  49.5987700
  24.1734800   5.4235830  50.9866680  23.6244900   5.8705130  51.6309420
  24.7954060   4.9185080  51.5104350  19.8409920   4.3826750  52.8831980
  20.2626340   4.2166620  53.7263370  19.9660760   3.5726980  52.3887120
  22.3537560   3.4064360  50.1309080  22.8743220   2.6913380  49.7650230
  23.0005960   4.0450230  50.4309590  22.9185590  11.4875970  52.4210820
  23.8136380  11.8260940  52.4429580  22.9503220  10.7655380  51.7935100
  16.5581750   6.8603020  50.6497820  16.9956620   7.4032690  51.3055400
  17.0429480   6.0349970  50.6594160  13.7727550   9.6492050  58.1018080
  14.1030560   8.7813110  57.8696720  14.2018550   9.8550570  58.9323040
  18.3689470   7.9801060  55.7620050  18.0685010   7.8566030  56.6623960
  18.2626960   7.1209650  55.3535780  31.1381390   7.7597460  50.4646730
  30.3074350   7.8274110  50.9353960  31.3153220   8.6501580  50.1613590
  30.5937850   4.5044940  52.9680930  31.3556760   5.0741590  53.0740620
  30.6092220   3.9372140  53.7389240  14.0942190   3.0282870  57.1988590
  13.4391030   2.7594510  56.5548290  14.9320140   2.9187350  56.7490570
  31.5997820   5.3595040  57.8122860  31.9706650   4.5762360  57.4058830
  32.2399750   6.0484140  57.6340160  30.6457020   4.7979310  50.1253450
  30.9205860   5.7058190  49.9972670  30.4567760   4.7341840  51.0615440
  30.5422360   2.7348300  55.1182880  30.1665960   1.9676230  54.6864170
  29.8125480   3.1171000  55.6057810  28.6407630  11.4950220  56.7521450
  29.2366700  11.1734790  56.0755870  28.8985780  11.0222040  57.5434720
  19.6215560  10.4533760  59.7567310  20.1380580   9.8421120  59.2315570
  20.2712940  10.9562540  60.2478320  14.3000460  11.5563150  56.1814660
  14.1322500  10.9233830  56.8796550  13.4334970  11.7622550  55.8308850
  15.9063160  10.2496380  53.6264800  15.3810780  10.6304410  52.9226760
  15.8307740  10.8747150  54.3474510  30.6628480  11.8083920  54.9478740
  30.8380670  11.1221660  54.3039660  29.9650050  12.3330970  54.5555410
  18.5056130  12.1978760  52.5014050  19.2374950  11.9138040  51.9537940
  18.7649800  11.9592040  53.3913430  17.6670920   8.3143490  52.5060380
  17.0379800   8.7828590  53.0546210  17.7818750   7.4692710  52.9406570
  25.1220640   2.3649150  38.6561580  25.0414690   1.4503760  38.3853290
  24.7085060   2.8616220  37.9501290  23.2538680   4.1428170  40.5370850
  22.4780780   3.6628610  40.8269420  23.9051610   3.4633820  40.3627010
  17.2704510   4.4547980  41.4146610  16.4389390   4.1996690  41.8143120
  17.8785490   4.5258750  42.1504530  27.2746110   8.5488360  39.3169980
  26.8127640   7.7775600  39.6457150  28.0871660   8.5754430  39.8222430
  17.2505770   8.4888070  41.6104630  17.5533810   7.5985810  41.4314850
  17.9949360   9.0458290  41.3826880  13.6429470   2.0155520  41.0828700
  14.2145580   1.2477720  41.0832340  13.6431010   2.3144280  40.1735310
  23.5009420  10.8346370  38.9373970  22.8820860  11.2903870  38.3668410
  24.3561200  10.9897830  38.5363670  22.6947670   6.8185360  40.5441010
  22.6255950   5.8775300  40.3830140  23.4567530   6.9086770  41.1163580
  24.3672770   5.7185610  36.3305880  23.7490040   6.1835060  35.7668600
  24.8796020   6.4113090  36.7475390  19.2304530   5.2461480  43.0089480
  18.8973910   5.8730400  43.6510550  19.4071210   5.7723360  42.2291150
  18.4423630   7.2142280  44.8238660  19.0597630   7.8893360  44.5423110
  17.5816750   7.6230260  44.7326160  13.7355970   6.4042140  33.7045510
  13.3583950   6.8929240  32.9730410  13.9929040   7.0767420  34.3352040
  29.3601220   8.6781690  42.7393300  28.6764740   9.3480800  42.7309970
  29.8995510   8.8762340  41.9738160  26.8959960  10.5225820  41.4538480
  26.9087120  10.1188110  40.5860740  26.3435180  11.2973110  41.3499910
  28.1905380   7.2442040  36.5428650  28.0801710   6.3016370  36.6678070
  28.1873630   7.6057680  37.4291410  26.2945400   5.4255660  42.7821090
  26.7114190   5.2115770  41.9474550  27.0185220   5.6828450  43.3529710
  23.7325660   2.8707360  35.8991140  22.8054940   2.8044740  36.1279610
  23.8850480   3.8087490  35.7846380  30.2407500   3.8242880  42.8737330
  29.4126130   3.8935970  42.3987460  30.8357980   4.4097190  42.4053160
  27.7622950   4.4327660  36.4026390  27.1435370   4.0947210  35.7552690
  27.7447400   3.7887420  37.1105580  19.3382300   3.3972100  38.6810870
  18.9339300   2.6849350  38.1856770  19.4245420   3.0525340  39.5698910
  19.8064000   7.0839660  40.8450080  19.5092290   6.4785130  40.1657860
  20.7563820   7.1216970  40.7339440  27.8949610  10.6571530  44.5073180
  27.4180170  11.4643720  44.3145790  27.2111400  10.0049860  44.6599390
  18.8982430   6.8221350  47.4957880  18.0010960   7.0461320  47.7431280
  18.9235300   6.9456290  46.5469280  25.9387650   3.6714470  33.4099140
  26.3780930   2.8336900  33.2636960  26.6516070   4.3043870  33.4963280
  17.7253650   3.6934670  46.0715250  17.5861420   4.5657470  46.4402650
  16.8435010   3.3507480  45.9263190  24.0483030   8.6110540  37.3780380
  24.4878940   9.3534870  36.9635770  23.9869920   8.8537110  38.3019340
  19.5234000   9.6356370  48.2800400  19.4949430  10.0399320  47.4128830
  19.3598970   8.7066730  48.1172000  16.0386930   2.2917080  36.1817520
  15.9184530   3.0179170  35.5698790  15.7287820   1.5219990  35.7045430
  31.4748820  10.4183470  49.5764570  31.9508540  10.8966360  50.2553650
  32.0955980  10.3500960  48.8510070  13.6772300   5.4632220  41.9886160
  13.7552720   5.5980990  41.0441880  14.2913980   4.7548110  42.1814280
  14.9219930   7.1632410  38.3992340  14.5148010   7.3047000  37.5445940
  15.8132940   6.8792570  38.1963550  30.8782070   7.6096320  46.7364580
  31.0045130   7.3708200  45.8181760  30.9203450   6.7780860  47.2086660
  24.7398810  11.3124320  45.3059390  25.2543480  11.2232330  46.1081820
  23.8967890  11.6584020  45.5987300  26.7153210  11.5979660  34.7343390
  26.5554350  11.3082600  35.6325220  26.5499920  10.8219790  34.1988620
  19.1941590  11.3778190  36.5115010  19.0184070  10.4613730  36.2982810
  18.3397330  11.7365480  36.7512810  26.4179340   9.1067220  33.2941390
  25.7244500   9.1044510  32.6343670  27.1602200   8.6826540  32.8635560
  25.9829270  10.7329930  37.3689880  26.4386220   9.9519310  37.6828500
  26.3221790  11.4436750  37.9131060  13.7331820   6.5046390  44.5280620
  13.8962860   6.0351750  43.7099990  14.1984270   5.9969950  45.1929460
  20.2301620   1.9785800  32.8109700  19.6618520   1.5304050  32.1845610
  20.9390620   2.3378580  32.2774850  15.3070800   5.8797820  46.6876430
  14.9225590   5.2391490  47.2859390  15.6182990   6.5833940  47.2571160
  21.4567940   2.7274360  42.1685050  21.8238070   2.2532930  42.9146390
  21.2673000   3.6015930  42.5093390  19.2467310   1.7683000  44.4869260
  18.9424380   2.6474980  44.7119620  20.2013770   1.8282790  44.5226700
  17.7749100   5.9743990  35.0836110  17.0011360   5.4341610  34.9234830
  18.5043730   5.4550600  34.7453870  28.5337080   4.9709350  40.8762500
  29.2536200   5.4664640  40.4858610  28.3318900   4.2927240  40.2316370
  23.9155880   5.0418410  46.7631500  23.8493190   4.1214080  46.5089090
  23.2861020   5.1393850  47.4776140  17.8186500   5.6424370  38.7214920
  18.3365170   4.8392630  38.6671810  17.3670520   5.5803510  39.5631750
  22.7056000   6.9090650  33.9942220  23.0471700   7.6532880  33.4985540
  21.8768710   7.2221770  34.3567050  15.3031040   2.6085740  45.6340620
  14.9445980   3.2739590  46.2213960  15.0085600   1.7769290  46.0053240
  18.5044160   3.0669980  48.5180170  18.2044300   3.2127160  47.6207990
  19.2755400   2.5075270  48.4253560  23.8472610   7.8638980  46.5135300
  23.8617150   6.9319940  46.2954210  23.1397710   7.9498740  47.1525070
  28.9809680   2.0478800  32.7833910  28.8973400   2.4793020  31.9330350
  29.7003870   2.5077150  33.2160730  30.0583820   4.5046320  45.8603880
  29.3332010   5.0975100  45.6633270  30.5859280   4.4969860  45.0617250
  30.0096930   8.9021060  35.5116040  29.3673090   8.2476680  35.7859760
  29.6227590   9.3076150  34.7356710  25.5883410   6.2306490  39.3587730
  25.9407230   5.6334620  38.6989100  24.7045740   5.9050720  39.5295980
  21.6746690   6.9904180  36.7658140  22.3617820   7.5373390  37.1465730
  20.8879110   7.5344910  36.8007750  13.8139090   2.6077000  32.2575220
  14.6833940   2.8901800  32.5411140  13.3229410   3.4212870  32.1424030
  20.9773900   3.9950210  36.3783500  21.4336680   4.8055460  36.6043690
  20.6262110   3.6773350  37.2101990  23.2806510   9.5056550  43.6075800
  23.9248730   9.7115930  44.2849220  23.6435950   8.7444950  43.1546650
  24.5538590   7.5088900  42.3253250  25.1960820   6.8082060  42.4385420
  25.0787940   8.2887340  42.1450140  28.3994310   7.7937520  32.0492390
  28.1731890   7.0767960  32.6417030  28.0090510   7.5449960  31.2114140
  26.3276210   8.3083800  45.5289310  26.6632450   8.8950490  46.2067230
  25.4076550   8.1776510  45.7587100  14.1810340  11.8204380  32.8236850
  14.5407980  12.4193720  32.1694120  14.0402680  12.3664270  33.5971880
  27.9810560   5.7109460  33.7106550  27.6932260   6.1722150  34.4984430
  28.7762730   5.2507230  33.9790770  14.1652200  10.0859240  47.2979250
  14.2743320   9.1453980  47.1574640  13.5132760  10.3513990  46.6492980
  22.1564790   8.3575130  48.6977370  21.8361660   7.6384370  49.2423060
  21.4823150   9.0330200  48.7713430  20.1978960   9.2035580  33.6410520
  20.1889060   9.9365270  33.0255030  19.2777320   8.9567160  33.7337480
  15.7985600   4.4250470  34.3857280  15.1913550   5.1649370  34.3952580
  16.2734950   4.5149830  33.5595480  23.1838560   9.2663820  32.3035710
  23.2850540   9.0627810  31.3737690  22.2840300   9.0122100  32.5083490
  21.8256670  11.7850140  36.9983380  22.0798170  11.7471530  36.0762750
  20.8769150  11.6583470  36.9911630  27.8309250   2.7042020  38.5741890
  26.8899390   2.7192250  38.7489580  28.1453320   1.9177980  39.0202190
  17.8090890   4.3861620  32.1345850  18.5754160   4.2742980  32.6971280
  17.8865580   3.6899590  31.4822620  29.8334830   9.8750870  40.2496150
  29.9582250  10.6982040  40.7219960  30.7000390   9.6641600  39.9020300
  17.3052360  11.9682080  39.9213280  18.0414840  11.4197540  40.1921850
  17.6893280  12.8338090  39.7819270  14.1897840   8.0355650  35.7954790
  13.2637620   8.2776790  35.7860200  14.6554270   8.8629910  35.6739540
  16.3110640  11.1528150  49.1098860  17.1123370  11.4740200  49.5234260
  15.7962460  10.7923730  49.8318770  20.4154670  11.1412390  31.7438850
  21.2083280  11.4301220  31.2920640  19.8959020  10.7104560  31.0651330
  25.1475270   7.2608020  49.0574270  24.5413430   7.2839620  48.3170020
  24.8429380   6.5291060  49.5941520  26.5775640  10.9888310  47.6683680
  27.5297390  10.9046330  47.6183920  26.4303860  11.6530020  48.3417470
  29.4684840  10.3682520  33.1675590  29.1826350   9.9547660  32.3529770
  29.2704390  11.2970230  33.0476110  14.0308450   3.6401610  48.0534910
  14.5347470   3.0608890  48.6251140  13.2915870   3.9241840  48.5911280
  20.9332070   6.3615800  31.6081200  20.8282710   5.7468150  32.3342580
  20.7656290   5.8381690  30.8244210  21.0846390   5.0472600  47.5870430
  20.3192060   5.6157600  47.5025100  21.2662350   4.7548810  46.6938660
  24.1734800   5.4235830  32.2123190  23.6244900   5.8705130  32.8565930
  24.7954060   4.9185080  32.7360860  28.2269740   6.7777930  48.1445450
  28.9679210   7.1153690  47.6412910  27.4642420   6.9469990  47.5915220
  16.0631530   1.7831200  48.9484980  16.1036870   1.4845070  49.8570210
  16.9177030   2.1838810  48.7892500  19.8409920   4.3826750  34.1088490
  20.2626340   4.2166620  34.9519880  19.9660760   3.5726980  33.6143630
  22.3537560   3.4064360  31.3565590  22.8743220   2.6913380  30.9906740
  23.0005960   4.0450230  31.6566100  26.9015400   4.8292760  46.6800660
  27.3156420   4.9837840  47.5291080  25.9666400   4.9547980  46.8426440
  27.3737570   2.1688920  48.6839810  27.9558340   1.4141240  48.5960290
  27.5499340   2.6996360  47.9071290  21.6630630   4.7813240  44.6496590
  22.0818740   5.6245970  44.4772830  20.7439260   4.9185280  44.4203370
  23.9994530   2.5129420  46.0334430  24.1190740   1.9170560  46.7729270
  24.8588530   2.5499110  45.6135730  26.3382430   3.0666610  44.6096940
  25.8117650   3.5909230  44.0062080  26.6813770   3.6994000  45.2406670
  19.5138050  11.0866250  45.7654320  18.9759140  11.8112310  45.4463020
  19.7672010  10.6096590  44.9751660  22.3700260  12.3217460  46.0240970
  22.2958960  13.2252600  46.3313340  21.4679100  12.0029360  45.9963040
  22.9185590  11.4875970  33.6467330  23.8136380  11.8260940  33.6686090
  22.9503220  10.7655380  33.0191610  16.5581750   6.8603020  31.8754330
  16.9956620   7.4032690  32.5311910  17.0429480   6.0349970  31.8850670
  13.7727550   9.6492050  39.3274590  14.1030560   8.7813110  39.0953230
  14.2018550   9.8550570  40.1579550  18.3689470   7.9801060  36.9876560
  18.0685010   7.8566030  37.8880470  18.2626960   7.1209650  36.5792290
  14.2617760  10.5162640  42.0656220  13.8248750  10.6963440  42.8980370
  14.8295440  11.2737260  41.9237940  29.8979940  10.0179640  46.3533530
  29.2981930  10.0772200  45.6097450  30.0273840   9.0784620  46.4830380
  31.1381390   7.7597460  31.6903240  30.3074350   7.8274110  32.1610470
  31.3153220   8.6501580  31.3870100  30.5937850   4.5044940  34.1937440
  31.3556760   5.0741590  34.2997130  30.6092220   3.9372140  34.9645750
  14.0942190   3.0282870  38.4245100  13.4391030   2.7594510  37.7804800
  14.9320140   2.9187350  37.9747080  31.5997820   5.3595040  39.0379370
  31.9706650   4.5762360  38.6315340  32.2399750   6.0484140  38.8596670
  28.5831580   6.7431620  44.4509690  27.7691420   7.1728780  44.7135480
  28.9905780   7.3550030  43.8378740  30.6457020   4.7979310  31.3509960
  30.9205860   5.7058190  31.2229180  30.4567760   4.7341840  32.2871950
  30.5422360   2.7348300  36.3439390  30.1665960   1.9676230  35.9120680
  29.8125480   3.1171000  36.8314320  15.1318120   3.4135440  42.9648440
  15.4991160   3.3262840  43.8444460  14.5628940   2.6501990  42.8655300
  29.9321980   1.8819820  45.9778910  29.7008070   1.6532570  45.0776860
  30.1926530   2.8019370  45.9323800  28.6407630  11.4950220  37.9777960
  29.2366700  11.1734790  37.3012380  28.8985780  11.0222040  38.7691230
  16.5470200   7.9268130  48.1268590  16.5039830   7.5561040  49.0083050
  16.6781210   8.8645700  48.2670410  20.2476230   9.4827720  43.7278310
  20.0067590   9.7502280  42.8408830  21.1878870   9.6533450  43.7829170
  31.5080390  11.5022100  44.5288950  31.0138670  11.8990970  43.8116080
  30.8993680  10.8771310  44.9226230  16.3858230  10.8730380  45.2466370
  15.7918550  10.7415080  45.9856410  16.3782070  10.0368520  44.7808470
  29.1919840  12.1445520  41.8075690  28.7322810  12.8961330  41.4333710
  28.5632300  11.4251990  41.7490490  16.0170460   8.2388760  44.1974410
  15.2904520   7.6194050  44.1300360  16.0779610   8.6329370  43.3272490
  19.6215560  10.4533760  40.9823820  20.1380580   9.8421120  40.4572080
  20.2712940  10.9562540  41.4734830  22.3611060  11.3442250  41.8092800
  22.6488870  11.0896550  40.9325810  22.8734280  10.7919610  42.3998370
  14.3000460  11.5563150  37.4071170  14.1322500  10.9233830  38.1053060
  13.4334970  11.7622550  37.0565360  15.9063160  10.2496380  34.8521310
  15.3810780  10.6304410  34.1483270  15.8307740  10.8747150  35.5731020
  22.4283420  12.2658350  49.1761000  23.3550730  12.0302620  49.2196960
  22.4133850  13.0930350  48.6947030  30.6628480  11.8083920  36.1735250
  30.8380670  11.1221660  35.5296170  29.9650050  12.3330970  35.7811920
  18.5056130  12.1978760  33.7270560  19.2374950  11.9138040  33.1794450
  18.7649800  11.9592040  34.6169940  17.6670920   8.3143490  33.7316890
  17.0379800   8.7828590  34.2802720  17.7818750   7.4692710  34.1663080
  28.9960980  11.4928210  49.0002040  29.7886300  10.9977440  48.7928000
  29.2894130  12.1718350  49.6077650  25.1220640   2.3649150  19.8818090
  25.0414690   1.4503760  19.6109800  24.7085060   2.8616220  19.1757800
  23.2538680   4.1428170  21.7627360  22.4780780   3.6628610  22.0525930
  23.9051610   3.4633820  21.5883520  17.2704510   4.4547980  22.6403120
  16.4389390   4.1996690  23.0399630  17.8785490   4.5258750  23.3761040
  27.2746110   8.5488360  20.5426490  26.8127640   7.7775600  20.8713660
  28.0871660   8.5754430  21.0478940  17.2505770   8.4888070  22.8361140
  17.5533810   7.5985810  22.6571360  17.9949360   9.0458290  22.6083390
  13.6429470   2.0155520  22.3085210  14.2145580   1.2477720  22.3088850
  13.6431010   2.3144280  21.3991820  23.5009420  10.8346370  20.1630480
  22.8820860  11.2903870  19.5924920  24.3561200  10.9897830  19.7620180
  22.6947670   6.8185360  21.7697520  22.6255950   5.8775300  21.6086650
  23.4567530   6.9086770  22.3420090  24.3672770   5.7185610  17.5562390
  23.7490040   6.1835060  16.9925110  24.8796020   6.4113090  17.9731900
  19.2304530   5.2461480  24.2345990  18.8973910   5.8730400  24.8767060
  19.4071210   5.7723360  23.4547660  18.4423630   7.2142280  26.0495170
  19.0597630   7.8893360  25.7679620  17.5816750   7.6230260  25.9582670
  13.7355970   6.4042140  14.9302020  13.3583950   6.8929240  14.1986920
  13.9929040   7.0767420  15.5608550  29.3601220   8.6781690  23.9649810
  28.6764740   9.3480800  23.9566480  29.8995510   8.8762340  23.1994670
  26.8959960  10.5225820  22.6794990  26.9087120  10.1188110  21.8117250
  26.3435180  11.2973110  22.5756420  28.1905380   7.2442040  17.7685160
  28.0801710   6.3016370  17.8934580  28.1873630   7.6057680  18.6547920
  26.2945400   5.4255660  24.0077600  26.7114190   5.2115770  23.1731060
  27.0185220   5.6828450  24.5786220  23.7325660   2.8707360  17.1247650
  22.8054940   2.8044740  17.3536120  23.8850480   3.8087490  17.0102890
  30.2407500   3.8242880  24.0993840  29.4126130   3.8935970  23.6243970
  30.8357980   4.4097190  23.6309670  27.7622950   4.4327660  17.6282900
  27.1435370   4.0947210  16.9809200  27.7447400   3.7887420  18.3362090
  19.3382300   3.3972100  19.9067380  18.9339300   2.6849350  19.4113280
  19.4245420   3.0525340  20.7955420  19.8064000   7.0839660  22.0706590
  19.5092290   6.4785130  21.3914370  20.7563820   7.1216970  21.9595950
  27.8949610  10.6571530  25.7329690  27.4180170  11.4643720  25.5402300
  27.2111400  10.0049860  25.8855900  18.8982430   6.8221350  28.7214390
  18.0010960   7.0461320  28.9687790  18.9235300   6.9456290  27.7725790
  17.7253650   3.6934670  27.2971760  17.5861420   4.5657470  27.6659160
  16.8435010   3.3507480  27.1519700  24.0483030   8.6110540  18.6036890
  24.4878940   9.3534870  18.1892280  23.9869920   8.8537110  19.5275850
  19.5234000   9.6356370  29.5056910  19.4949430  10.0399320  28.6385340
  19.3598970   8.7066730  29.3428510  16.0386930   2.2917080  17.4074030
  15.9184530   3.0179170  16.7955300  15.7287820   1.5219990  16.9301940
  31.4748820  10.4183470  30.8021080  31.9508540  10.8966360  31.4810160
  32.0955980  10.3500960  30.0766580  13.6772300   5.4632220  23.2142670
  13.7552720   5.5980990  22.2698390  14.2913980   4.7548110  23.4070790
  14.9219930   7.1632410  19.6248850  14.5148010   7.3047000  18.7702450
  15.8132940   6.8792570  19.4220060  30.8782070   7.6096320  27.9621090
  31.0045130   7.3708200  27.0438270  30.9203450   6.7780860  28.4343170
  24.7398810  11.3124320  26.5315900  25.2543480  11.2232330  27.3338330
  23.8967890  11.6584020  26.8243810  26.7153210  11.5979660  15.9599900
  26.5554350  11.3082600  16.8581730  26.5499920  10.8219790  15.4245130
  19.1941590  11.3778190  17.7371520  19.0184070  10.4613730  17.5239320
  18.3397330  11.7365480  17.9769320  26.4179340   9.1067220  14.5197900
  25.7244500   9.1044510  13.8600180  27.1602200   8.6826540  14.0892070
  25.9829270  10.7329930  18.5946390  26.4386220   9.9519310  18.9085010
  26.3221790  11.4436750  19.1387570  13.7331820   6.5046390  25.7537130
  13.8962860   6.0351750  24.9356500  14.1984270   5.9969950  26.4185970
  20.2301620   1.9785800  14.0366210  19.6618520   1.5304050  13.4102120
  20.9390620   2.3378580  13.5031360  15.3070800   5.8797820  27.9132940
  14.9225590   5.2391490  28.5115900  15.6182990   6.5833940  28.4827670
  21.4567940   2.7274360  23.3941560  21.8238070   2.2532930  24.1402900
  21.2673000   3.6015930  23.7349900  19.2467310   1.7683000  25.7125770
  18.9424380   2.6474980  25.9376130  20.2013770   1.8282790  25.7483210
  17.7749100   5.9743990  16.3092620  17.0011360   5.4341610  16.1491340
  18.5043730   5.4550600  15.9710380  28.5337080   4.9709350  22.1019010
  29.2536200   5.4664640  21.7115120  28.3318900   4.2927240  21.4572880
  23.9155880   5.0418410  27.9888010  23.8493190   4.1214080  27.7345600
  23.2861020   5.1393850  28.7032650  17.8186500   5.6424370  19.9471430
  18.3365170   4.8392630  19.8928320  17.3670520   5.5803510  20.7888260
  22.7056000   6.9090650  15.2198730  23.0471700   7.6532880  14.7242050
  21.8768710   7.2221770  15.5823560  15.3031040   2.6085740  26.8597130
  14.9445980   3.2739590  27.4470470  15.0085600   1.7769290  27.2309750
  18.5044160   3.0669980  29.7436680  18.2044300   3.2127160  28.8464500
  19.2755400   2.5075270  29.6510070  23.8472610   7.8638980  27.7391810
  23.8617150   6.9319940  27.5210720  23.1397710   7.9498740  28.3781580
  28.9809680   2.0478800  14.0090420  28.8973400   2.4793020  13.1586860
  29.7003870   2.5077150  14.4417240  30.0583820   4.5046320  27.0860390
  29.3332010   5.0975100  26.8889780  30.5859280   4.4969860  26.2873760
  30.0096930   8.9021060  16.7372550  29.3673090   8.2476680  17.0116270
  29.6227590   9.3076150  15.9613220  25.5883410   6.2306490  20.5844240
  25.9407230   5.6334620  19.9245610  24.7045740   5.9050720  20.7552490
  21.6746690   6.9904180  17.9914650  22.3617820   7.5373390  18.3722240
  20.8879110   7.5344910  18.0264260  13.8139090   2.6077000  13.4831730
  14.6833940   2.8901800  13.7667650  13.3229410   3.4212870  13.3680540
  20.9773900   3.9950210  17.6040010  21.4336680   4.8055460  17.8300200
  20.6262110   3.6773350  18.4358500  23.2806510   9.5056550  24.8332310
  23.9248730   9.7115930  25.5105730  23.6435950   8.7444950  24.3803160
  24.5538590   7.5088900  23.5509760  25.1960820   6.8082060  23.6641930
  25.0787940   8.2887340  23.3706650  28.3994310   7.7937520  13.2748900
  28.1731890   7.0767960  13.8673540  28.0090510   7.5449960  12.4370650
  26.3276210   8.3083800  26.7545820  26.6632450   8.8950490  27.4323740
  25.4076550   8.1776510  26.9843610  14.1810340  11.8204380  14.0493360
  14.5407980  12.4193720  13.3950630  14.0402680  12.3664270  14.8228390
  27.9810560   5.7109460  14.9363060  27.6932260   6.1722150  15.7240940
  28.7762730   5.2507230  15.2047280  14.1652200  10.0859240  28.5235760
  14.2743320   9.1453980  28.3831150  13.5132760  10.3513990  27.8749490
  22.1564790   8.3575130  29.9233880  21.8361660   7.6384370  30.4679570
  21.4823150   9.0330200  29.9969940  20.1978960   9.2035580  14.8667030
  20.1889060   9.9365270  14.2511540  19.2777320   8.9567160  14.9593990
  15.7985600   4.4250470  15.6113790  15.1913550   5.1649370  15.6209090
  16.2734950   4.5149830  14.7851990  23.1838560   9.2663820  13.5292220
  23.2850540   9.0627810  12.5994200  22.2840300   9.0122100  13.7340000
  21.8256670  11.7850140  18.2239890  22.0798170  11.7471530  17.3019260
  20.8769150  11.6583470  18.2168140  27.8309250   2.7042020  19.7998400
  26.8899390   2.7192250  19.9746090  28.1453320   1.9177980  20.2458700
  17.8090890   4.3861620  13.3602360  18.5754160   4.2742980  13.9227790
  17.8865580   3.6899590  12.7079130  29.8334830   9.8750870  21.4752660
  29.9582250  10.6982040  21.9476470  30.7000390   9.6641600  21.1276810
  17.3052360  11.9682080  21.1469790  18.0414840  11.4197540  21.4178360
  17.6893280  12.8338090  21.0075780  14.1897840   8.0355650  17.0211300
  13.2637620   8.2776790  17.0116710  14.6554270   8.8629910  16.8996050
  16.3110640  11.1528150  30.3355370  17.1123370  11.4740200  30.7490770
  15.7962460  10.7923730  31.0575280  20.4154670  11.1412390  12.9695360
  21.2083280  11.4301220  12.5177150  19.8959020  10.7104560  12.2907840
  25.1475270   7.2608020  30.2830780  24.5413430   7.2839620  29.5426530
  24.8429380   6.5291060  30.8198030  26.5775640  10.9888310  28.8940190
  27.5297390  10.9046330  28.8440430  26.4303860  11.6530020  29.5673980
  29.4684840  10.3682520  14.3932100  29.1826350   9.9547660  13.5786280
  29.2704390  11.2970230  14.2732620  14.0308450   3.6401610  29.2791420
  14.5347470   3.0608890  29.8507650  13.2915870   3.9241840  29.8167790
  20.9332070   6.3615800  12.8337710  20.8282710   5.7468150  13.5599090
  20.7656290   5.8381690  12.0500720  21.0846390   5.0472600  28.8126940
  20.3192060   5.6157600  28.7281610  21.2662350   4.7548810  27.9195170
  24.1734800   5.4235830  13.4379700  23.6244900   5.8705130  14.0822440
  24.7954060   4.9185080  13.9617370  28.2269740   6.7777930  29.3701960
  28.9679210   7.1153690  28.8669420  27.4642420   6.9469990  28.8171730
  16.0631530   1.7831200  30.1741490  16.1036870   1.4845070  31.0826720
  16.9177030   2.1838810  30.0149010  19.8409920   4.3826750  15.3345000
  20.2626340   4.2166620  16.1776390  19.9660760   3.5726980  14.8400140
  22.3537560   3.4064360  12.5822100  22.8743220   2.6913380  12.2163250
  23.0005960   4.0450230  12.8822610  26.9015400   4.8292760  27.9057170
  27.3156420   4.9837840  28.7547590  25.9666400   4.9547980  28.0682950
  27.3737570   2.1688920  29.9096320  27.9558340   1.4141240  29.8216800
  27.5499340   2.6996360  29.1327800  21.6630630   4.7813240  25.8753100
  22.0818740   5.6245970  25.7029340  20.7439260   4.9185280  25.6459880
  23.9994530   2.5129420  27.2590940  24.1190740   1.9170560  27.9985780
  24.8588530   2.5499110  26.8392240  26.3382430   3.0666610  25.8353450
  25.8117650   3.5909230  25.2318590  26.6813770   3.6994000  26.4663180
  19.5138050  11.0866250  26.9910830  18.9759140  11.8112310  26.6719530
  19.7672010  10.6096590  26.2008170  22.3700260  12.3217460  27.2497480
  22.2958960  13.2252600  27.5569850  21.4679100  12.0029360  27.2219550
  22.9185590  11.4875970  14.8723840  23.8136380  11.8260940  14.8942600
  22.9503220  10.7655380  14.2448120  16.5581750   6.8603020  13.1010840
  16.9956620   7.4032690  13.7568420  17.0429480   6.0349970  13.1107180
  13.7727550   9.6492050  20.5531100  14.1030560   8.7813110  20.3209740
  14.2018550   9.8550570  21.3836060  18.3689470   7.9801060  18.2133070
  18.0685010   7.8566030  19.1136980  18.2626960   7.1209650  17.8048800
  14.2617760  10.5162640  23.2912730  13.8248750  10.6963440  24.1236880
  14.8295440  11.2737260  23.1494450  29.8979940  10.0179640  27.5790040
  29.2981930  10.0772200  26.8353960  30.0273840   9.0784620  27.7086890
  31.1381390   7.7597460  12.9159750  30.3074350   7.8274110  13.3866980
  31.3153220   8.6501580  12.6126610  30.5937850   4.5044940  15.4193950
  31.3556760   5.0741590  15.5253640  30.6092220   3.9372140  16.1902260
  14.0942190   3.0282870  19.6501610  13.4391030   2.7594510  19.0061310
  14.9320140   2.9187350  19.2003590  31.5997820   5.3595040  20.2635880
  31.9706650   4.5762360  19.8571850  32.2399750   6.0484140  20.0853180
  28.5831580   6.7431620  25.6766200  27.7691420   7.1728780  25.9391990
  28.9905780   7.3550030  25.0635250  30.6457020   4.7979310  12.5766470
  30.9205860   5.7058190  12.4485690  30.4567760   4.7341840  13.5128460
  30.5422360   2.7348300  17.5695900  30.1665960   1.9676230  17.1377190
  29.8125480   3.1171000  18.0570830  15.1318120   3.4135440  24.1904950
  15.4991160   3.3262840  25.0700970  14.5628940   2.6501990  24.0911810
  29.9321980   1.8819820  27.2035420  29.7008070   1.6532570  26.3033370
  30.1926530   2.8019370  27.1580310  28.6407630  11.4950220  19.2034470
  29.2366700  11.1734790  18.5268890  28.8985780  11.0222040  19.9947740
  16.5470200   7.9268130  29.3525100  16.5039830   7.5561040  30.2339560
  16.6781210   8.8645700  29.4926920  20.2476230   9.4827720  24.9534820
  20.0067590   9.7502280  24.0665340  21.1878870   9.6533450  25.0085680
  31.5080390  11.5022100  25.7545460  31.0138670  11.8990970  25.0372590
  30.8993680  10.8771310  26.1482740  16.3858230  10.8730380  26.4722880
  15.7918550  10.7415080  27.2112920  16.3782070  10.0368520  26.0064980
  29.1919840  12.1445520  23.0332200  28.7322810  12.8961330  22.6590220
  28.5632300  11.4251990  22.9747000  16.0170460   8.2388760  25.4230920
  15.2904520   7.6194050  25.3556870  16.0779610   8.6329370  24.5529000
  19.6215560  10.4533760  22.2080330  20.1380580   9.8421120  21.6828590
  20.2712940  10.9562540  22.6991340  22.3611060  11.3442250  23.0349310
  22.6488870  11.0896550  22.1582320  22.8734280  10.7919610  23.6254880
  14.3000460  11.5563150  18.6327680  14.1322500  10.9233830  19.3309570
  13.4334970  11.7622550  18.2821870  15.9063160  10.2496380  16.0777820
  15.3810780  10.6304410  15.3739780  15.8307740  10.8747150  16.7987530
  22.4283420  12.2658350  30.4017510  23.3550730  12.0302620  30.4453470
  22.4133850  13.0930350  29.9203540  30.6628480  11.8083920  17.3991760
  30.8380670  11.1221660  16.7552680  29.9650050  12.3330970  17.0068430
  18.5056130  12.1978760  14.9527070  19.2374950  11.9138040  14.4050960
  18.7649800  11.9592040  15.8426450  17.6670920   8.3143490  14.9573400
  17.0379800   8.7828590  15.5059230  17.7818750   7.4692710  15.3919590
  28.9960980  11.4928210  30.2258550  29.7886300  10.9977440  30.0184510
  29.2894130  12.1718350  30.8334160  23.2538680   4.1428170   2.9883870
  22.4780780   3.6628610   3.2782440  23.9051610   3.4633820   2.8140030
  17.2704510   4.4547980   3.8659630  16.4389390   4.1996690   4.2656140
  17.8785490   4.5258750   4.6017550  27.2746110   8.5488360   1.7683000
  26.8127640   7.7775600   2.0970170  28.0871660   8.5754430   2.2735450
  17.2505770   8.4888070   4.0617650  17.5533810   7.5985810   3.8827870
  17.9949360   9.0458290   3.8339900  13.6429470   2.0155520   3.5341720
  14.2145580   1.2477720   3.5345360  13.6431010   2.3144280   2.6248330
  22.6947670   6.8185360   2.9954030  22.6255950   5.8775300   2.8343160
  23.4567530   6.9086770   3.5676600  19.2304530   5.2461480   5.4602500
  18.8973910   5.8730400   6.1023570  19.4071210   5.7723360   4.6804170
  18.4423630   7.2142280   7.2751680  19.0597630   7.8893360   6.9936130
  17.5816750   7.6230260   7.1839180  29.3601220   8.6781690   5.1906320
  28.6764740   9.3480800   5.1822990  29.8995510   8.8762340   4.4251180
  26.8959960  10.5225820   3.9051500  26.9087120  10.1188110   3.0373760
  26.3435180  11.2973110   3.8012930  26.2945400   5.4255660   5.2334110
  26.7114190   5.2115770   4.3987570  27.0185220   5.6828450   5.8042730
  30.2407500   3.8242880   5.3250350  29.4126130   3.8935970   4.8500480
  30.8357980   4.4097190   4.8566180  19.8064000   7.0839660   3.2963100
  19.5092290   6.4785130   2.6170880  20.7563820   7.1216970   3.1852460
  27.8949610  10.6571530   6.9586200  27.4180170  11.4643720   6.7658810
  27.2111400  10.0049860   7.1112410  18.8982430   6.8221350   9.9470900
  18.0010960   7.0461320  10.1944300  18.9235300   6.9456290   8.9982300
  17.7253650   3.6934670   8.5228270  17.5861420   4.5657470   8.8915670
  16.8435010   3.3507480   8.3776210  19.5234000   9.6356370  10.7313420
  19.4949430  10.0399320   9.8641850  19.3598970   8.7066730  10.5685020
  31.4748820  10.4183470  12.0277590  31.9508540  10.8966360  12.7066670
  32.0955980  10.3500960  11.3023090  13.6772300   5.4632220   4.4399180
  13.7552720   5.5980990   3.4954900  14.2913980   4.7548110   4.6327300
  30.8782070   7.6096320   9.1877600  31.0045130   7.3708200   8.2694780
  30.9203450   6.7780860   9.6599680  24.7398810  11.3124320   7.7572410
  25.2543480  11.2232330   8.5594840  23.8967890  11.6584020   8.0500320
  13.7331820   6.5046390   6.9793640  13.8962860   6.0351750   6.1613010
  14.1984270   5.9969950   7.6442480  15.3070800   5.8797820   9.1389450
  14.9225590   5.2391490   9.7372410  15.6182990   6.5833940   9.7084180
  21.4567940   2.7274360   4.6198070  21.8238070   2.2532930   5.3659410
  21.2673000   3.6015930   4.9606410  19.2467310   1.7683000   6.9382280
  18.9424380   2.6474980   7.1632640  20.2013770   1.8282790   6.9739720
  28.5337080   4.9709350   3.3275520  29.2536200   5.4664640   2.9371630
  28.3318900   4.2927240   2.6829390  23.9155880   5.0418410   9.2144520
  23.8493190   4.1214080   8.9602110  23.2861020   5.1393850   9.9289160
  15.3031040   2.6085740   8.0853640  14.9445980   3.2739590   8.6726980
  15.0085600   1.7769290   8.4566260  18.5044160   3.0669980  10.9693190
  18.2044300   3.2127160  10.0721010  19.2755400   2.5075270  10.8766580
  23.8472610   7.8638980   8.9648320  23.8617150   6.9319940   8.7467230
  23.1397710   7.9498740   9.6038090  30.0583820   4.5046320   8.3116900
  29.3332010   5.0975100   8.1146290  30.5859280   4.4969860   7.5130270
  23.2806510   9.5056550   6.0588820  23.9248730   9.7115930   6.7362240
  23.6435950   8.7444950   5.6059670  24.5538590   7.5088900   4.7766270
  25.1960820   6.8082060   4.8898440  25.0787940   8.2887340   4.5963160
  26.3276210   8.3083800   7.9802330  26.6632450   8.8950490   8.6580250
  25.4076550   8.1776510   8.2100120  14.1652200  10.0859240   9.7492270
  14.2743320   9.1453980   9.6087660  13.5132760  10.3513990   9.1006000
  22.1564790   8.3575130  11.1490390  21.8361660   7.6384370  11.6936080
  21.4823150   9.0330200  11.2226450  29.8334830   9.8750870   2.7009170
  29.9582250  10.6982040   3.1732980  30.7000390   9.6641600   2.3533320
  17.3052360  11.9682080   2.3726300  18.0414840  11.4197540   2.6434870
  17.6893280  12.8338090   2.2332290  16.3110640  11.1528150  11.5611880
  17.1123370  11.4740200  11.9747280  15.7962460  10.7923730  12.2831790
  25.1475270   7.2608020  11.5087290  24.5413430   7.2839620  10.7683040
  24.8429380   6.5291060  12.0454540  26.5775640  10.9888310  10.1196700
  27.5297390  10.9046330  10.0696940  26.4303860  11.6530020  10.7930490
  14.0308450   3.6401610  10.5047930  14.5347470   3.0608890  11.0764160
  13.2915870   3.9241840  11.0424300  21.0846390   5.0472600  10.0383450
  20.3192060   5.6157600   9.9538120  21.2662350   4.7548810   9.1451680
  28.2269740   6.7777930  10.5958470  28.9679210   7.1153690  10.0925930
  27.4642420   6.9469990  10.0428240  16.0631530   1.7831200  11.3998000
  16.1036870   1.4845070  12.3083230  16.9177030   2.1838810  11.2405520
  26.9015400   4.8292760   9.1313680  27.3156420   4.9837840   9.9804100
  25.9666400   4.9547980   9.2939460  27.3737570   2.1688920  11.1352830
  27.9558340   1.4141240  11.0473310  27.5499340   2.6996360  10.3584310
  21.6630630   4.7813240   7.1009610  22.0818740   5.6245970   6.9285850
  20.7439260   4.9185280   6.8716390  23.9994530   2.5129420   8.4847450
  24.1190740   1.9170560   9.2242290  24.8588530   2.5499110   8.0648750
  26.3382430   3.0666610   7.0609960  25.8117650   3.5909230   6.4575100
  26.6813770   3.6994000   7.6919690  19.5138050  11.0866250   8.2167340
  18.9759140  11.8112310   7.8976040  19.7672010  10.6096590   7.4264680
  22.3700260  12.3217460   8.4753990  22.2958960  13.2252600   8.7826360
  21.4679100  12.0029360   8.4476060  13.7727550   9.6492050   1.7787610
  14.1030560   8.7813110   1.5466250  14.2018550   9.8550570   2.6092570
  14.2617760  10.5162640   4.5169240  13.8248750  10.6963440   5.3493390
  14.8295440  11.2737260   4.3750960  29.8979940  10.0179640   8.8046550
  29.2981930  10.0772200   8.0610470  30.0273840   9.0784620   8.9343400
  28.5831580   6.7431620   6.9022710  27.7691420   7.1728780   7.1648500
  28.9905780   7.3550030   6.2891760  15.1318120   3.4135440   5.4161460
  15.4991160   3.3262840   6.2957480  14.5628940   2.6501990   5.3168320
  29.9321980   1.8819820   8.4291930  29.7008070   1.6532570   7.5289880
  30.1926530   2.8019370   8.3836820  16.5470200   7.9268130  10.5781610
  16.5039830   7.5561040  11.4596070  16.6781210   8.8645700  10.7183430
  20.2476230   9.4827720   6.1791330  20.0067590   9.7502280   5.2921850
  21.1878870   9.6533450   6.2342190  31.5080390  11.5022100   6.9801970
  31.0138670  11.8990970   6.2629100  30.8993680  10.8771310   7.3739250
  16.3858230  10.8730380   7.6979390  15.7918550  10.7415080   8.4369430
  16.3782070  10.0368520   7.2321490  29.1919840  12.1445520   4.2588710
  28.7322810  12.8961330   3.8846730  28.5632300  11.4251990   4.2003510
  16.0170460   8.2388760   6.6487430  15.2904520   7.6194050   6.5813380
  16.0779610   8.6329370   5.7785510  19.6215560  10.4533760   3.4336840
  20.1380580   9.8421120   2.9085100  20.2712940  10.9562540   3.9247850
  22.4283420  12.2658350  11.6274020  23.3550730  12.0302620  11.6709980
  22.4133850  13.0930350  11.1460050  28.9960980  11.4928210  11.4515060
  29.7886300  10.9977440  11.2441020  29.2894130  12.1718350  12.0590670
   6.3477150  96.2366600  57.4305070   6.2671200  95.3221210  57.1596780
   5.9341570  96.7333670  56.7244780   4.4795190  98.0145620  59.3114340
   3.7037290  97.5346060  59.6012910   5.1308120  97.3351270  59.1370500
   4.9509350  93.4973190  59.5453430   5.3274170  92.6245070  59.4327100
   4.8528860  93.8331890  58.6543870   8.7333470  90.9923630  56.4781770
   9.5543090  90.5020200  56.5207250   8.7667550  91.5821290  57.2313610
   8.9694950  92.9324010  59.2509310   8.2650520  93.2208900  59.8312420
   9.3307110  93.7424120  58.8908870  12.0381870  92.3778800  59.6418520
  11.0906780  92.4117780  59.7733950  12.3631860  93.1917750  60.0267880
   2.5701410  88.6775980  57.9374510   2.8776390  88.1222870  57.2210010
   1.6402110  88.8120440  57.7547500   4.9582170  96.7424810  54.6734630
   4.0311450  96.6762190  54.9023100   5.1106990  97.6804940  54.5589870
   4.9451250  93.0141810  51.6701790   4.0054920  93.1755770  51.7554250
   5.2634510  93.7327490  51.1237780   8.9879460  98.3045110  55.1769880
   8.3691880  97.9664660  54.5296180   8.9703910  97.6604870  55.8849070
   7.1644160  97.5431920  52.1842630   7.6037440  96.7054350  52.0380450
   7.8772580  98.1761320  52.2706770  10.7461300  88.7974730  50.4983670
  10.4333960  88.8901560  51.3982740  11.5073770  89.3755760  50.4481100
   2.8465920  89.1280300  53.2190510   2.2220100  89.1240170  53.9443820
   2.7596040  88.2611260  52.8226480   1.7683000  90.0516930  60.1974280
   2.0655330  90.9579760  60.1166300   2.3168560  89.5635710  59.5833850
   6.7519080  94.6366540  54.6656580   6.1527970  95.3602340  54.4820200
   7.2998690  94.5743320  53.8833030   5.3583950  93.2730080  56.6959860
   5.7513520  93.5902280  55.8828550   5.7200800  92.3941960  56.8104380
   2.3816480  92.5390030  59.1963130   2.3852540  92.0979980  58.3467670
   3.2767600  92.8607360  59.3034950   2.4436630  93.5402110  52.1869890
   2.5649450  93.4988590  53.1355710   2.0585140  94.4026260  52.0316620
   5.2203530  90.2364760  53.7935380   4.4068140  89.7377930  53.7180690
   5.0265480  91.0763010  53.3771730   7.9351920  94.6084410  52.0897540
   8.8231540  94.9201640  51.9148880   7.9057010  93.7356660  51.6978120
  10.2066190  95.9196250  51.5577400  10.1229910  96.3510470  50.7073840
  10.9260380  96.3794600  51.9904220   2.2030410  97.8667660  55.1526990
   2.6593190  98.6772910  55.3787180   1.8518620  97.5490800  55.9845480
   9.9636930  91.4175680  53.6445220   9.3350090  91.5221350  52.9303450
   9.4688850  91.6372460  54.4339100   5.9636390  90.4212290  56.4998890
   5.8404170  90.4398420  55.5508400   6.9120950  90.4691230  56.6197290
   9.0565760  96.5759470  57.3485380   8.1155900  96.5909700  57.5233070
   9.3709830  95.7895430  57.7945680   3.5794070  97.2781810  50.1309080
   4.0999730  96.5630830  49.7650230   4.2262470  97.9167680  50.4309590
   7.4413640  89.1385660  52.3577020   7.7215930  88.2953560  52.7136440
   6.6679370  89.3708770  52.8715770   1.9793060  90.3712670  50.8024220
   1.6315060  89.6936660  50.2226670   2.1805830  89.9102180  51.6167610
  11.8194360  98.3762390  52.9680930  12.5813270  98.9459040  53.0740620
  11.8348730  97.8089590  53.7389240   8.2689140  91.6941610  51.4207080
   8.6874020  91.5072590  50.5803740   7.9625200  90.8420660  51.7310010
  11.7678870  96.6065750  55.1182880  11.3922470  95.8393680  54.6864170
  11.0381990  96.9888450  55.6057810  11.0429830  94.8323240  58.4190120
  11.5667310  94.3385890  57.7880290  11.6289250  94.9673600  59.1637690
  10.5329800  94.0896590  54.3582530  11.0288920  93.8567460  55.1431410
  10.3345870  93.2508430  53.9420170  11.9616960  92.7257540  56.8920210
  11.8516240  92.5713580  57.8302480  12.7224550  92.1978480  56.6495620
  12.8507230  90.5565460  50.1326350  13.7756540  90.4246640  49.9244640
  12.8283020  90.6358280  51.0862800  12.9245720  91.3276120  52.7583060
  12.1297220  91.2621240  53.2875970  13.1289000  92.2626760  52.7468410
   9.3565650  89.6573000  59.2081890   9.7973740  89.6018100  58.3603490
   9.0873240  90.5731010  59.2792070  11.2204220  89.2888240  57.2190710
  11.1592620  88.3449460  57.0721730  11.9996250  89.3968330  57.7644170
   2.6898800  91.3736650  56.6748830   1.8773310  90.9993540  56.3344710
   3.1940440  90.6181730  56.9770020   7.1923780  88.0379100  57.9131900
   7.7953150  88.6099310  58.3880420   6.4516770  88.6018540  57.6905800
  10.3358380  88.4400660  53.1872180  10.5309010  89.3384110  53.4539610
   9.5488250  88.2087740  53.6805130   6.3477150  96.2366600  38.6561580
   6.2671200  95.3221210  38.3853290   5.9341570  96.7333670  37.9501290
   4.4795190  98.0145620  40.5370850   3.7037290  97.5346060  40.8269420
   5.1308120  97.3351270  40.3627010   4.9509350  93.4973190  40.7709940
   5.3274170  92.6245070  40.6583610   4.8528860  93.8331890  39.8800380
   8.7333470  90.9923630  37.7038280   9.5543090  90.5020200  37.7463760
   8.7667550  91.5821290  38.4570120  13.0233020  93.0090380  44.2681910
  12.3185190  93.3972090  43.7497020  13.2890940  93.7040670  44.8702840
   8.9694950  92.9324010  40.4765820   8.2650520  93.2208900  41.0568930
   9.3307110  93.7424120  40.1165380  12.0381870  92.3778800  40.8675030
  11.0906780  92.4117780  40.9990460  12.3631860  93.1917750  41.2524390
   2.5701410  88.6775980  39.1631020   2.8776390  88.1222870  38.4466520
   1.6402110  88.8120440  38.9804010   4.9582170  96.7424810  35.8991140
   4.0311450  96.6762190  36.1279610   5.1106990  97.6804940  35.7846380
   4.9451250  93.0141810  32.8958300   4.0054920  93.1755770  32.9810760
   5.2634510  93.7327490  32.3494290  11.4664010  97.6960330  42.8737330
  10.6382640  97.7653420  42.3987460  12.0614490  98.2814640  42.4053160
   8.9879460  98.3045110  36.4026390   8.3691880  97.9664660  35.7552690
   8.9703910  97.6604870  37.1105580   8.4306020  94.4829650  43.8192200
   8.0177200  95.3083360  44.0732190   7.6981970  93.8974690  43.6268560
   7.1644160  97.5431920  33.4099140   7.6037440  96.7054350  33.2636960
   7.8772580  98.1761320  33.4963280  10.7461300  88.7974730  31.7240180
  10.4333960  88.8901560  32.6239250  11.5073770  89.3755760  31.6737610
  11.9562590  93.5346230  47.7014320  11.3406860  94.0425900  47.1729780
  11.6359010  92.6344560  47.6440260   4.0176910  92.3738120  45.1676510
   3.5556280  92.5821140  45.9796450   3.6155020  91.5597470  44.8647180
   9.0181420  93.5947070  46.2973170   8.1675010  93.2952820  46.6182240
   8.8583210  93.8389080  45.3856990   6.1131130  95.0948820  48.3971960
   6.4384540  94.2612570  48.0574190   6.9011460  95.6177340  48.5450290
   2.8465920  89.1280300  34.4447020   2.2220100  89.1240170  35.1700330
   2.7596040  88.2611260  34.0482990   1.7683000  90.0516930  41.4230790
   2.0655330  90.9579760  41.3422810   2.3168560  89.5635710  40.8090360
   6.7519080  94.6366540  35.8913090   6.1527970  95.3602340  35.7076710
   7.2998690  94.5743320  35.1089540   1.9620530  95.5288750  47.9582710
   1.8664130  94.5883480  47.8083110   2.8052510  95.7503820  47.5630780
   5.3583950  93.2730080  37.9216370   5.7513520  93.5902280  37.1085060
   5.7200800  92.3941960  38.0360890   3.6676120  92.0237390  49.1813230
   2.9774440  91.8309590  49.8159320   4.4108420  92.3072030  49.7137530
   5.9439090  95.8635830  42.0167150   5.2120210  96.3722640  42.3657250
   5.5463430  95.0465810  41.7155930   2.3816480  92.5390030  40.4219640
   2.3852540  92.0979980  39.5724180   3.2767600  92.8607360  40.5291460
   2.4436630  93.5402110  33.4126400   2.5649450  93.4988590  34.3612220
   2.0585140  94.4026260  33.2573130   6.4065000  91.3169510  41.4290090
   6.4237740  91.7678160  42.2731940   6.1580580  90.4175150  41.6423530
   9.8335750  88.7301690  47.2676470  10.1581520  87.9991350  47.7934450
   9.8692260  88.4115330  46.3657460   2.6824450  96.5991810  42.1685050
   3.0494580  96.1250380  42.9146390   2.4929510  97.4733380  42.5093390
   5.2203530  90.2364760  35.0191890   4.4068140  89.7377930  34.9437200
   5.0265480  91.0763010  34.6028240   7.9351920  94.6084410  33.3154050
   8.8231540  94.9201640  33.1405390   7.9057010  93.7356660  32.9234630
  10.2066190  95.9196250  32.7833910  10.1229910  96.3510470  31.9330350
  10.9260380  96.3794600  33.2160730  11.2840330  98.3763770  45.8603880
  10.5588520  98.9692550  45.6633270  11.8115790  98.3687310  45.0617250
   2.2030410  97.8667660  36.3783500   2.6593190  98.6772910  36.6043690
   1.8518620  97.5490800  37.2101990   6.5974900  92.4618740  44.0614170
   6.9655720  91.6413950  44.3893740   5.7373100  92.5220630  44.4769820
   9.9636930  91.4175680  34.8701730   9.3350090  91.5221350  34.1559960
   9.4688850  91.6372460  35.6595610   3.5576890  95.1158330  44.2852140
   4.0562140  95.5904150  44.9503990   3.6999840  94.1921850  44.4922170
   5.9636390  90.4212290  37.7255400   5.8404170  90.4398420  36.7764910
   6.9120950  90.4691230  37.8453800  10.7643750  91.3326290  45.1280530
  10.2617350  92.0731690  45.4674340  11.5800410  91.7210290  44.8117320
   9.0565760  96.5759470  38.5741890   8.1155900  96.5909700  38.7489580
   9.3709830  95.7895430  39.0202190   3.5794070  97.2781810  31.3565590
   4.0999730  96.5630830  30.9906740   4.2262470  97.9167680  31.6566100
   8.1271910  98.7010210  46.6800660   8.5412930  98.8555290  47.5291080
   7.1922910  98.8265430  46.8426440   8.5994080  96.0406370  48.6839810
   9.1814850  95.2858690  48.5960290   8.7755850  96.5713810  47.9071290
   2.4827590  89.7576360  44.0284150   2.0344890  89.7800620  43.1829700
   1.8492790  89.3595380  44.6254450   5.2251040  96.3846870  46.0334430
   5.3447250  95.7888010  46.7729270   6.0845040  96.4216560  45.6135730
   7.5638940  96.9384060  44.6096940   7.0374160  97.4626680  44.0062080
   7.9070280  97.5711450  45.2406670   6.8113240  92.5434030  47.5243270
   6.1228760  91.8815570  47.4593260   7.5319260  92.0972300  47.9691730
   7.4413640  89.1385660  33.5833530   7.7215930  88.2953560  33.9392950
   6.6679370  89.3708770  34.0972280   1.9793060  90.3712670  32.0280730
   1.6315060  89.6936660  31.4483180   2.1805830  89.9102180  32.8424120
  11.8194360  98.3762390  34.1937440  12.5813270  98.9459040  34.2997130
  11.8348730  97.8089590  34.9645750   8.2689140  91.6941610  32.6463590
   8.6874020  91.5072590  31.8060250   7.9625200  90.8420660  32.9566520
  11.7678870  96.6065750  36.3439390  11.3922470  95.8393680  35.9120680
  11.0381990  96.9888450  36.8314320  11.1578490  95.7537270  45.9778910
  10.9264580  95.5250020  45.0776860  11.4183040  96.6736820  45.9323800
   9.5966560  90.9793700  48.7558610  10.4736740  90.9877100  49.1392610
   9.6087400  90.2424540  48.1450960  11.0429830  94.8323240  39.6446630
  11.5667310  94.3385890  39.0136800  11.6289250  94.9673600  40.3894200
  11.2219550  94.9163110  43.1666180  10.2722260  94.8826650  43.2811170
  11.4032560  95.8263220  42.9315950  10.5329800  94.0896590  35.5839040
  11.0288920  93.8567460  36.3687920  10.3345870  93.2508430  35.1676680
  11.9616960  92.7257540  38.1176720  11.8516240  92.5713580  39.0558990
  12.7224550  92.1978480  37.8752130  10.3082680  88.6651670  44.5759720
  10.9454900  89.2785810  44.9418910  10.4557570  88.7012330  43.6308950
  12.8507230  90.5565460  31.3582860  13.7756540  90.4246640  31.1501150
  12.8283020  90.6358280  32.3119310  12.9245720  91.3276120  33.9839570
  12.1297220  91.2621240  34.5132480  13.1289000  92.2626760  33.9724920
   3.6787160  89.8177860  47.4834820   3.6176050  90.4099690  48.2330230
   4.6187540  89.7103820  47.3385080   6.3161720  89.4747920  47.1227110
   6.9302130  89.7927210  46.4608190   6.8611280  88.9896510  47.7422970
   7.0569760  88.0380060  43.4496400   6.1829600  88.3715170  43.2469330
   6.9480510  87.5653240  44.2748270   7.9641740  90.2450930  44.8338120
   7.6355100  89.4302690  44.4539850   8.9124040  90.2020740  44.7103810
   4.8044580  88.9549900  42.3889310   4.0216370  89.4295400  42.6686070
   4.5107510  88.0504730  42.2802490   9.3565650  89.6573000  40.4338400
   9.7973740  89.6018100  39.5860000   9.0873240  90.5731010  40.5048580
  11.2204220  89.2888240  38.4447220  11.1592620  88.3449460  38.2978240
  11.9996250  89.3968330  38.9900680   2.6898800  91.3736650  37.9005340
   1.8773310  90.9993540  37.5601220   3.1940440  90.6181730  38.2026530
   7.1923780  88.0379100  39.1388410   7.7953150  88.6099310  39.6136930
   6.4516770  88.6018540  38.9162310  10.3358380  88.4400660  34.4128690
  10.5309010  89.3384110  34.6796120   9.5488250  88.2087740  34.9061640
   7.4419000  88.2174130  49.5183350   7.3284450  88.5368740  50.4134870
   8.2588740  88.6186640  49.2220630   6.3477150  96.2366600  19.8818090
   6.2671200  95.3221210  19.6109800   5.9341570  96.7333670  19.1757800
   4.4795190  98.0145620  21.7627360   3.7037290  97.5346060  22.0525930
   5.1308120  97.3351270  21.5883520   4.9509350  93.4973190  21.9966450
   5.3274170  92.6245070  21.8840120   4.8528860  93.8331890  21.1056890
   8.7333470  90.9923630  18.9294790   9.5543090  90.5020200  18.9720270
   8.7667550  91.5821290  19.6826630  13.0233020  93.0090380  25.4938420
  12.3185190  93.3972090  24.9753530  13.2890940  93.7040670  26.0959350
   8.9694950  92.9324010  21.7022330   8.2650520  93.2208900  22.2825440
   9.3307110  93.7424120  21.3421890  12.0381870  92.3778800  22.0931540
  11.0906780  92.4117780  22.2246970  12.3631860  93.1917750  22.4780900
   2.5701410  88.6775980  20.3887530   2.8776390  88.1222870  19.6723030
   1.6402110  88.8120440  20.2060520   4.9582170  96.7424810  17.1247650
   4.0311450  96.6762190  17.3536120   5.1106990  97.6804940  17.0102890
   4.9451250  93.0141810  14.1214810   4.0054920  93.1755770  14.2067270
   5.2634510  93.7327490  13.5750800  11.4664010  97.6960330  24.0993840
  10.6382640  97.7653420  23.6243970  12.0614490  98.2814640  23.6309670
   8.9879460  98.3045110  17.6282900   8.3691880  97.9664660  16.9809200
   8.9703910  97.6604870  18.3362090   8.4306020  94.4829650  25.0448710
   8.0177200  95.3083360  25.2988700   7.6981970  93.8974690  24.8525070
   7.1644160  97.5431920  14.6355650   7.6037440  96.7054350  14.4893470
   7.8772580  98.1761320  14.7219790  10.7461300  88.7974730  12.9496690
  10.4333960  88.8901560  13.8495760  11.5073770  89.3755760  12.8994120
  11.9562590  93.5346230  28.9270830  11.3406860  94.0425900  28.3986290
  11.6359010  92.6344560  28.8696770   4.0176910  92.3738120  26.3933020
   3.5556280  92.5821140  27.2052960   3.6155020  91.5597470  26.0903690
   9.0181420  93.5947070  27.5229680   8.1675010  93.2952820  27.8438750
   8.8583210  93.8389080  26.6113500   6.1131130  95.0948820  29.6228470
   6.4384540  94.2612570  29.2830700   6.9011460  95.6177340  29.7706800
   2.8465920  89.1280300  15.6703530   2.2220100  89.1240170  16.3956840
   2.7596040  88.2611260  15.2739500   1.7683000  90.0516930  22.6487300
   2.0655330  90.9579760  22.5679320   2.3168560  89.5635710  22.0346870
   6.7519080  94.6366540  17.1169600   6.1527970  95.3602340  16.9333220
   7.2998690  94.5743320  16.3346050   1.9620530  95.5288750  29.1839220
   1.8664130  94.5883480  29.0339620   2.8052510  95.7503820  28.7887290
   5.3583950  93.2730080  19.1472880   5.7513520  93.5902280  18.3341570
   5.7200800  92.3941960  19.2617400   3.6676120  92.0237390  30.4069740
   2.9774440  91.8309590  31.0415830   4.4108420  92.3072030  30.9394040
   5.9439090  95.8635830  23.2423660   5.2120210  96.3722640  23.5913760
   5.5463430  95.0465810  22.9412440   2.3816480  92.5390030  21.6476150
   2.3852540  92.0979980  20.7980690   3.2767600  92.8607360  21.7547970
   2.4436630  93.5402110  14.6382910   2.5649450  93.4988590  15.5868730
   2.0585140  94.4026260  14.4829640   6.4065000  91.3169510  22.6546600
   6.4237740  91.7678160  23.4988450   6.1580580  90.4175150  22.8680040
   9.8335750  88.7301690  28.4932980  10.1581520  87.9991350  29.0190960
   9.8692260  88.4115330  27.5913970   2.6824450  96.5991810  23.3941560
   3.0494580  96.1250380  24.1402900   2.4929510  97.4733380  23.7349900
   5.2203530  90.2364760  16.2448400   4.4068140  89.7377930  16.1693710
   5.0265480  91.0763010  15.8284750   7.9351920  94.6084410  14.5410560
   8.8231540  94.9201640  14.3661900   7.9057010  93.7356660  14.1491140
  10.2066190  95.9196250  14.0090420  10.1229910  96.3510470  13.1586860
  10.9260380  96.3794600  14.4417240  11.2840330  98.3763770  27.0860390
  10.5588520  98.9692550  26.8889780  11.8115790  98.3687310  26.2873760
   2.2030410  97.8667660  17.6040010   2.6593190  98.6772910  17.8300200
   1.8518620  97.5490800  18.4358500   6.5974900  92.4618740  25.2870680
   6.9655720  91.6413950  25.6150250   5.7373100  92.5220630  25.7026330
   9.9636930  91.4175680  16.0958240   9.3350090  91.5221350  15.3816470
   9.4688850  91.6372460  16.8852120   3.5576890  95.1158330  25.5108650
   4.0562140  95.5904150  26.1760500   3.6999840  94.1921850  25.7178680
   5.9636390  90.4212290  18.9511910   5.8404170  90.4398420  18.0021420
   6.9120950  90.4691230  19.0710310  10.7643750  91.3326290  26.3537040
  10.2617350  92.0731690  26.6930850  11.5800410  91.7210290  26.0373830
   9.0565760  96.5759470  19.7998400   8.1155900  96.5909700  19.9746090
   9.3709830  95.7895430  20.2458700   3.5794070  97.2781810  12.5822100
   4.0999730  96.5630830  12.2163250   4.2262470  97.9167680  12.8822610
   8.1271910  98.7010210  27.9057170   8.5412930  98.8555290  28.7547590
   7.1922910  98.8265430  28.0682950   8.5994080  96.0406370  29.9096320
   9.1814850  95.2858690  29.8216800   8.7755850  96.5713810  29.1327800
   2.4827590  89.7576360  25.2540660   2.0344890  89.7800620  24.4086210
   1.8492790  89.3595380  25.8510960   5.2251040  96.3846870  27.2590940
   5.3447250  95.7888010  27.9985780   6.0845040  96.4216560  26.8392240
   7.5638940  96.9384060  25.8353450   7.0374160  97.4626680  25.2318590
   7.9070280  97.5711450  26.4663180   6.8113240  92.5434030  28.7499780
   6.1228760  91.8815570  28.6849770   7.5319260  92.0972300  29.1948240
   7.4413640  89.1385660  14.8090040   7.7215930  88.2953560  15.1649460
   6.6679370  89.3708770  15.3228790   1.9793060  90.3712670  13.2537240
   1.6315060  89.6936660  12.6739690   2.1805830  89.9102180  14.0680630
  11.8194360  98.3762390  15.4193950  12.5813270  98.9459040  15.5253640
  11.8348730  97.8089590  16.1902260   8.2689140  91.6941610  13.8720100
   8.6874020  91.5072590  13.0316760   7.9625200  90.8420660  14.1823030
  11.7678870  96.6065750  17.5695900  11.3922470  95.8393680  17.1377190
  11.0381990  96.9888450  18.0570830  11.1578490  95.7537270  27.2035420
  10.9264580  95.5250020  26.3033370  11.4183040  96.6736820  27.1580310
   9.5966560  90.9793700  29.9815120  10.4736740  90.9877100  30.3649120
   9.6087400  90.2424540  29.3707470  11.0429830  94.8323240  20.8703140
  11.5667310  94.3385890  20.2393310  11.6289250  94.9673600  21.6150710
  11.2219550  94.9163110  24.3922690  10.2722260  94.8826650  24.5067680
  11.4032560  95.8263220  24.1572460  10.5329800  94.0896590  16.8095550
  11.0288920  93.8567460  17.5944430  10.3345870  93.2508430  16.3933190
  11.9616960  92.7257540  19.3433230  11.8516240  92.5713580  20.2815500
  12.7224550  92.1978480  19.1008640  10.3082680  88.6651670  25.8016230
  10.9454900  89.2785810  26.1675420  10.4557570  88.7012330  24.8565460
  12.8507230  90.5565460  12.5839370  13.7756540  90.4246640  12.3757660
  12.8283020  90.6358280  13.5375820  12.9245720  91.3276120  15.2096080
  12.1297220  91.2621240  15.7388990  13.1289000  92.2626760  15.1981430
   3.6787160  89.8177860  28.7091330   3.6176050  90.4099690  29.4586740
   4.6187540  89.7103820  28.5641590   6.3161720  89.4747920  28.3483620
   6.9302130  89.7927210  27.6864700   6.8611280  88.9896510  28.9679480
   7.0569760  88.0380060  24.6752910   6.1829600  88.3715170  24.4725840
   6.9480510  87.5653240  25.5004780   7.9641740  90.2450930  26.0594630
   7.6355100  89.4302690  25.6796360   8.9124040  90.2020740  25.9360320
   4.8044580  88.9549900  23.6145820   4.0216370  89.4295400  23.8942580
   4.5107510  88.0504730  23.5059000   9.3565650  89.6573000  21.6594910
   9.7973740  89.6018100  20.8116510   9.0873240  90.5731010  21.7305090
  11.2204220  89.2888240  19.6703730  11.1592620  88.3449460  19.5234750
  11.9996250  89.3968330  20.2157190   2.6898800  91.3736650  19.1261850
   1.8773310  90.9993540  18.7857730   3.1940440  90.6181730  19.4283040
   7.1923780  88.0379100  20.3644920   7.7953150  88.6099310  20.8393440
   6.4516770  88.6018540  20.1418820  10.3358380  88.4400660  15.6385200
  10.5309010  89.3384110  15.9052630   9.5488250  88.2087740  16.1318150
   7.4419000  88.2174130  30.7439860   7.3284450  88.5368740  31.6391380
   8.2588740  88.6186640  30.4477140   4.4795190  98.0145620   2.9883870
   3.7037290  97.5346060   3.2782440   5.1308120  97.3351270   2.8140030
   4.9509350  93.4973190   3.2222960   5.3274170  92.6245070   3.1096630
   4.8528860  93.8331890   2.3313400  13.0233020  93.0090380   6.7194930
  12.3185190  93.3972090   6.2010040  13.2890940  93.7040670   7.3215860
   8.9694950  92.9324010   2.9278840   8.2650520  93.2208900   3.5081950
   9.3307110  93.7424120   2.5678400  12.0381870  92.3778800   3.3188050
  11.0906780  92.4117780   3.4503480  12.3631860  93.1917750   3.7037410
  11.4664010  97.6960330   5.3250350  10.6382640  97.7653420   4.8500480
  12.0614490  98.2814640   4.8566180   8.4306020  94.4829650   6.2705220
   8.0177200  95.3083360   6.5245210   7.6981970  93.8974690   6.0781580
  11.9562590  93.5346230  10.1527340  11.3406860  94.0425900   9.6242800
  11.6359010  92.6344560  10.0953280   4.0176910  92.3738120   7.6189530
   3.5556280  92.5821140   8.4309470   3.6155020  91.5597470   7.3160200
   9.0181420  93.5947070   8.7486190   8.1675010  93.2952820   9.0695260
   8.8583210  93.8389080   7.8370010   6.1131130  95.0948820  10.8484980
   6.4384540  94.2612570  10.5087210   6.9011460  95.6177340  10.9963310
   1.7683000  90.0516930   3.8743810   2.0655330  90.9579760   3.7935830
   2.3168560  89.5635710   3.2603380   1.9620530  95.5288750  10.4095730
   1.8664130  94.5883480  10.2596130   2.8052510  95.7503820  10.0143800
   3.6676120  92.0237390  11.6326250   2.9774440  91.8309590  12.2672340
   4.4108420  92.3072030  12.1650550   5.9439090  95.8635830   4.4680170
   5.2120210  96.3722640   4.8170270   5.5463430  95.0465810   4.1668950
   2.3816480  92.5390030   2.8732660   2.3852540  92.0979980   2.0237200
   3.2767600  92.8607360   2.9804480   6.4065000  91.3169510   3.8803110
   6.4237740  91.7678160   4.7244960   6.1580580  90.4175150   4.0936550
   9.8335750  88.7301690   9.7189490  10.1581520  87.9991350  10.2447470
   9.8692260  88.4115330   8.8170480   2.6824450  96.5991810   4.6198070
   3.0494580  96.1250380   5.3659410   2.4929510  97.4733380   4.9606410
  11.2840330  98.3763770   8.3116900  10.5588520  98.9692550   8.1146290
  11.8115790  98.3687310   7.5130270   6.5974900  92.4618740   6.5127190
   6.9655720  91.6413950   6.8406760   5.7373100  92.5220630   6.9282840
   3.5576890  95.1158330   6.7365160   4.0562140  95.5904150   7.4017010
   3.6999840  94.1921850   6.9435190  10.7643750  91.3326290   7.5793550
  10.2617350  92.0731690   7.9187360  11.5800410  91.7210290   7.2630340
   8.1271910  98.7010210   9.1313680   8.5412930  98.8555290   9.9804100
   7.1922910  98.8265430   9.2939460   8.5994080  96.0406370  11.1352830
   9.1814850  95.2858690  11.0473310   8.7755850  96.5713810  10.3584310
   2.4827590  89.7576360   6.4797170   2.0344890  89.7800620   5.6342720
   1.8492790  89.3595380   7.0767470   5.2251040  96.3846870   8.4847450
   5.3447250  95.7888010   9.2242290   6.0845040  96.4216560   8.0648750
   7.5638940  96.9384060   7.0609960   7.0374160  97.4626680   6.4575100
   7.9070280  97.5711450   7.6919690   6.8113240  92.5434030   9.9756290
   6.1228760  91.8815570   9.9106280   7.5319260  92.0972300  10.4204750
  11.1578490  95.7537270   8.4291930  10.9264580  95.5250020   7.5289880
  11.4183040  96.6736820   8.3836820   9.5966560  90.9793700  11.2071630
  10.4736740  90.9877100  11.5905630   9.6087400  90.2424540  10.5963980
  11.0429830  94.8323240   2.0959650  11.5667310  94.3385890   1.4649820
  11.6289250  94.9673600   2.8407220  11.2219550  94.9163110   5.6179200
  10.2722260  94.8826650   5.7324190  11.4032560  95.8263220   5.3828970
  10.3082680  88.6651670   7.0272740  10.9454900  89.2785810   7.3931930
  10.4557570  88.7012330   6.0821970   3.6787160  89.8177860   9.9347840
   3.6176050  90.4099690  10.6843250   4.6187540  89.7103820   9.7898100
   6.3161720  89.4747920   9.5740130   6.9302130  89.7927210   8.9121210
   6.8611280  88.9896510  10.1935990   7.0569760  88.0380060   5.9009420
   6.1829600  88.3715170   5.6982350   6.9480510  87.5653240   6.7261290
   7.9641740  90.2450930   7.2851140   7.6355100  89.4302690   6.9052870
   8.9124040  90.2020740   7.1616830   4.8044580  88.9549900   4.8402330
   4.0216370  89.4295400   5.1199090   4.5107510  88.0504730   4.7315510
   9.3565650  89.6573000   2.8851420   9.7973740  89.6018100   2.0373020
   9.0873240  90.5731010   2.9561600   7.4419000  88.2174130  11.9696370
   7.3284450  88.5368740  12.8647890   8.2588740  88.6186640  11.6733650
   6.3477150  77.4623110  57.4305070   6.2671200  76.5477720  57.1596780
   5.9341570  77.9590180  56.7244780   4.4795190  79.2402130  59.3114340
   3.7037290  78.7602570  59.6012910   5.1308120  78.5607780  59.1370500
   8.5002620  83.6462320  58.0913470   8.0384150  82.8749560  58.4200640
   9.3128170  83.6728390  58.5965920   4.7265930  85.9320330  57.7117460
   4.1077370  86.3877830  57.1411900   5.5817710  86.0871790  57.3107160
   3.9204180  81.9159320  59.3184500   3.8512460  80.9749260  59.1573630
   4.6824040  82.0060730  59.8907070   4.9509350  74.7229700  59.5453430
   5.3274170  73.8501580  59.4327100   4.8528860  75.0588400  58.6543870
   8.7333470  72.2180140  56.4781770   9.5543090  71.7276710  56.5207250
   8.7667550  72.8077800  57.2313610   5.5929280  80.8159570  55.1049370
   4.9746550  81.2809020  54.5412090   6.1052530  81.5087050  55.5218880
   8.9694950  74.1580520  59.2509310   8.2650520  74.4465410  59.8312420
   9.3307110  74.9680630  58.8908870  12.0381870  73.6035310  59.6418520
  11.0906780  73.6374290  59.7733950  12.3631860  74.4174260  60.0267880
   2.5701410  69.9032490  57.9374510   2.8776390  69.3479380  57.2210010
   1.6402110  70.0376950  57.7547500   8.1216470  85.6199780  60.2281970
   8.1343630  85.2162070  59.3604230   7.5691690  86.3947070  60.1243400
   9.4161890  82.3416000  55.3172140   9.3058220  81.3990330  55.4421560
   9.4130140  82.7031640  56.2034900   4.9582170  77.9681320  54.6734630
   4.0311450  77.9018700  54.9023100   5.1106990  78.9061450  54.5589870
   4.9451250  74.2398320  51.6701790   4.0054920  74.4012280  51.7554250
   5.2634510  74.9584000  51.1237780   8.9879460  79.5301620  55.1769880
   8.3691880  79.1921170  54.5296180   8.9703910  78.8861380  55.8849070
   7.1644160  78.7688430  52.1842630   7.6037440  77.9310860  52.0380450
   7.8772580  79.4017830  52.2706770   5.2739540  83.7084500  56.1523870
   5.7135450  84.4508830  55.7379260   5.2126430  83.9511070  57.0762830
  10.7461300  70.0231240  50.4983670  10.4333960  70.1158070  51.3982740
  11.5073770  70.6012270  50.4481100   7.9409720  86.6953620  53.5086880
   7.7810860  86.4056560  54.4068710   7.7756430  85.9193750  52.9732110
   7.6435850  84.2041180  52.0684880   6.9501010  84.2018470  51.4087160
   8.3858710  83.7800500  51.6379050   7.2085780  85.8303890  56.1433370
   7.6642730  85.0493270  56.4571990   7.5478300  86.5410710  56.6874550
   2.8465920  70.3536810  53.2190510   2.2220100  70.3496680  53.9443820
   2.7596040  69.4867770  52.8226480   1.7683000  71.2773440  60.1974280
   2.0655330  72.1836270  60.1166300   2.3168560  70.7892220  59.5833850
   6.7519080  75.8623050  54.6656580   6.1527970  76.5858850  54.4820200
   7.2998690  75.7999830  53.8833030   5.3583950  74.4986590  56.6959860
   5.7513520  74.8158790  55.8828550   5.7200800  73.6198470  56.8104380
   2.3816480  73.7646540  59.1963130   2.3852540  73.3236490  58.3467670
   3.2767600  74.0863870  59.3034950   2.4436630  74.7658620  52.1869890
   2.5649450  74.7245100  53.1355710   2.0585140  75.6282770  52.0316620
   9.7593590  80.0683310  59.6505990  10.4792710  80.5638600  59.2602100
   9.5575410  79.3901200  59.0059860   5.2203530  71.4621270  53.7935380
   4.4068140  70.9634440  53.7180690   5.0265480  72.3019520  53.3771730
   7.9351920  75.8340920  52.0897540   8.8231540  76.1458150  51.9148880
   7.9057010  74.9613170  51.6978120   3.9312510  82.0064610  52.7685710
   4.2728210  82.7506840  52.2729030   3.1025220  82.3195730  53.1310540
  10.2066190  77.1452760  51.5577400  10.1229910  77.5766980  50.7073840
  10.9260380  77.6051110  51.9904220  11.2353440  83.9995020  54.2859530
  10.5929600  83.3450640  54.5603250  10.8484100  84.4050110  53.5100200
   6.8139920  81.3280450  58.1331220   7.1663740  80.7308580  57.4732590
   5.9302250  81.0024680  58.3039470   2.9003200  82.0878140  55.5401630
   3.5874330  82.6347350  55.9209220   2.1135620  82.6318870  55.5751240
   2.2030410  79.0924170  55.1526990   2.6593190  79.9029420  55.3787180
   1.8518620  78.7747310  55.9845480   9.6250820  82.8911480  50.8235880
   9.3988400  82.1741920  51.4160520   9.2347020  82.6423920  49.9857630
   9.2067070  80.8083420  52.4850040   8.9188770  81.2696110  53.2727920
  10.0019240  80.3481190  52.7534260   9.9636930  72.6432190  53.6445220
   9.3350090  72.7477860  52.9303450   9.4688850  72.8628970  54.4339100
   4.4095070  84.3637780  51.0779200   4.5107050  84.1601770  50.1481180
   3.5096810  84.1096060  51.2826980   5.9636390  71.6468800  56.4998890
   5.8404170  71.6654930  55.5508400   6.9120950  71.6947740  56.6197290
   3.0513180  86.8824100  55.7726870   3.3054680  86.8445490  54.8506240
   2.1025660  86.7557430  55.7655120   9.0565760  77.8015980  57.3485380
   8.1155900  77.8166210  57.5233070   9.3709830  77.0151940  57.7945680
  11.0591340  84.9724830  59.0239640  11.1838760  85.7956000  59.4963450
  11.9256900  84.7615560  58.6763790  10.6941350  85.4656480  51.9419080
  10.4082860  85.0521620  51.1273260  10.4960900  86.3944190  51.8219600
   2.1588580  81.4589760  50.3824690   2.0539220  80.8442110  51.1086070
   1.9912800  80.9355650  49.5987700   5.3991310  80.5209790  50.9866680
   4.8501410  80.9679090  51.6309420   6.0210570  80.0159040  51.5104350
   3.5794070  78.5038320  50.1309080   4.0999730  77.7887340  49.7650230
   4.2262470  79.1424190  50.4309590   7.4413640  70.3642170  52.3577020
   7.7215930  69.5210070  52.7136440   6.6679370  70.5965280  52.8715770
   1.9793060  71.5969180  50.8024220   1.6315060  70.9193170  50.2226670
   2.1805830  71.1358690  51.6167610   4.1442100  86.5849930  52.4210820
   5.0392890  86.9234900  52.4429580   4.1759730  85.8629340  51.7935100
  12.3637900  82.8571420  50.4646730  11.5330860  82.9248070  50.9353960
  12.5409730  83.7475540  50.1613590  11.8194360  79.6018900  52.9680930
  12.5813270  80.1715550  53.0740620  11.8348730  79.0346100  53.7389240
  12.8254330  80.4569000  57.8122860  13.1963160  79.6736320  57.4058830
  13.4656260  81.1458100  57.6340160  11.8713530  79.8953270  50.1253450
  12.1462370  80.8032150  49.9972670  11.6824270  79.8315800  51.0615440
   8.2689140  72.9198120  51.4207080   8.6874020  72.7329100  50.5803740
   7.9625200  72.0677170  51.7310010  11.7678870  77.8322260  55.1182880
  11.3922470  77.0650190  54.6864170  11.0381990  78.2144960  55.6057810
  11.0429830  76.0579750  58.4190120  11.5667310  75.5642400  57.7880290
  11.6289250  76.1930110  59.1637690  10.5329800  75.3153100  54.3582530
  11.0288920  75.0823970  55.1431410  10.3345870  74.4764940  53.9420170
  11.9616960  73.9514050  56.8920210  11.8516240  73.7970090  57.8302480
  12.7224550  73.4234990  56.6495620  12.9245720  72.5532630  52.7583060
  12.1297220  72.4877750  53.2875970  13.1289000  73.4883270  52.7468410
   9.8664140  86.5924180  56.7521450  10.4623210  86.2708750  56.0755870
  10.1242290  86.1196000  57.5434720   9.3565650  70.8829510  59.2081890
   9.7973740  70.8274610  58.3603490   9.0873240  71.7987520  59.2792070
  11.2204220  70.5144750  57.2190710  11.1592620  69.5705970  57.0721730
  11.9996250  70.6224840  57.7644170   2.6898800  72.5993160  56.6748830
   1.8773310  72.2250050  56.3344710   3.1940440  71.8438240  56.9770020
   7.1923780  69.2635610  57.9131900   7.7953150  69.8355820  58.3880420
   6.4516770  69.8275050  57.6905800  10.3358380  69.6657170  53.1872180
  10.5309010  70.5640620  53.4539610   9.5488250  69.4344250  53.6805130
  11.8884990  86.9057880  54.9478740  12.0637180  86.2195620  54.3039660
  11.1906560  87.4304930  54.5555410   6.3477150  77.4623110  38.6561580
   6.2671200  76.5477720  38.3853290   5.9341570  77.9590180  37.9501290
   4.4795190  79.2402130  40.5370850   3.7037290  78.7602570  40.8269420
   5.1308120  78.5607780  40.3627010   8.5002620  83.6462320  39.3169980
   8.0384150  82.8749560  39.6457150   9.3128170  83.6728390  39.8222430
   4.7265930  85.9320330  38.9373970   4.1077370  86.3877830  38.3668410
   5.5817710  86.0871790  38.5363670   3.9204180  81.9159320  40.5441010
   3.8512460  80.9749260  40.3830140   4.6824040  82.0060730  41.1163580
   4.9509350  74.7229700  40.7709940   5.3274170  73.8501580  40.6583610
   4.8528860  75.0588400  39.8800380   8.7333470  72.2180140  37.7038280
   9.5543090  71.7276710  37.7463760   8.7667550  72.8077800  38.4570120
  13.0233020  74.2346890  44.2681910  12.3185190  74.6228600  43.7497020
  13.2890940  74.9297180  44.8702840   5.5929280  80.8159570  36.3305880
   4.9746550  81.2809020  35.7668600   6.1052530  81.5087050  36.7475390
   8.9694950  74.1580520  40.4765820   8.2650520  74.4465410  41.0568930
   9.3307110  74.9680630  40.1165380  10.5857730  83.7755650  42.7393300
   9.9021250  84.4454760  42.7309970  11.1252020  83.9736300  41.9738160
  12.0381870  73.6035310  40.8675030  11.0906780  73.6374290  40.9990460
  12.3631860  74.4174260  41.2524390   2.5701410  69.9032490  39.1631020
   2.8776390  69.3479380  38.4466520   1.6402110  70.0376950  38.9804010
   8.1216470  85.6199780  41.4538480   8.1343630  85.2162070  40.5860740
   7.5691690  86.3947070  41.3499910   9.4161890  82.3416000  36.5428650
   9.3058220  81.3990330  36.6678070   9.4130140  82.7031640  37.4291410
   7.5201910  80.5229620  42.7821090   7.9370700  80.3089730  41.9474550
   8.2441730  80.7802410  43.3529710   4.9582170  77.9681320  35.8991140
   4.0311450  77.9018700  36.1279610   5.1106990  78.9061450  35.7846380
   4.9451250  74.2398320  32.8958300   4.0054920  74.4012280  32.9810760
   5.2634510  74.9584000  32.3494290  11.4664010  78.9216840  42.8737330
  10.6382640  78.9909930  42.3987460  12.0614490  79.5071150  42.4053160
   8.9879460  79.5301620  36.4026390   8.3691880  79.1921170  35.7552690
   8.9703910  78.8861380  37.1105580   8.4306020  75.7086160  43.8192200
   8.0177200  76.5339870  44.0732190   7.6981970  75.1231200  43.6268560
   9.1206120  85.7545490  44.5073180   8.6436680  86.5617680  44.3145790
   8.4367910  85.1023820  44.6599390   7.1644160  78.7688430  33.4099140
   7.6037440  77.9310860  33.2636960   7.8772580  79.4017830  33.4963280
   5.2739540  83.7084500  37.3780380   5.7135450  84.4508830  36.9635770
   5.2126430  83.9511070  38.3019340  10.7461300  70.0231240  31.7240180
  10.4333960  70.1158070  32.6239250  11.5073770  70.6012270  31.6737610
  12.7005330  85.5157430  49.5764570  13.1765050  85.9940320  50.2553650
  13.3212490  85.4474920  48.8510070  12.1038580  82.7070280  46.7364580
  12.2301640  82.4682160  45.8181760  12.1459960  81.8754820  47.2086660
   5.9655320  86.4098280  45.3059390   6.4799990  86.3206290  46.1081820
   5.1224400  86.7557980  45.5987300   7.9409720  86.6953620  34.7343390
   7.7810860  86.4056560  35.6325220   7.7756430  85.9193750  34.1988620
   7.6435850  84.2041180  33.2941390   6.9501010  84.2018470  32.6343670
   8.3858710  83.7800500  32.8635560   7.2085780  85.8303890  37.3689880
   7.6642730  85.0493270  37.6828500   7.5478300  86.5410710  37.9131060
  11.9562590  74.7602740  47.7014320  11.3406860  75.2682410  47.1729780
  11.6359010  73.8601070  47.6440260   4.0176910  73.5994630  45.1676510
   3.5556280  73.8077650  45.9796450   3.6155020  72.7853980  44.8647180
   9.0181420  74.8203580  46.2973170   8.1675010  74.5209330  46.6182240
   8.8583210  75.0645590  45.3856990   6.1131130  76.3205330  48.3971960
   6.4384540  75.4869080  48.0574190   6.9011460  76.8433850  48.5450290
   2.8465920  70.3536810  34.4447020   2.2220100  70.3496680  35.1700330
   2.7596040  69.4867770  34.0482990   1.7683000  71.2773440  41.4230790
   2.0655330  72.1836270  41.3422810   2.3168560  70.7892220  40.8090360
   6.7519080  75.8623050  35.8913090   6.1527970  76.5858850  35.7076710
   7.2998690  75.7999830  35.1089540   1.9620530  76.7545260  47.9582710
   1.8664130  75.8139990  47.8083110   2.8052510  76.9760330  47.5630780
   5.3583950  74.4986590  37.9216370   5.7513520  74.8158790  37.1085060
   5.7200800  73.6198470  38.0360890   3.6676120  73.2493900  49.1813230
   2.9774440  73.0566100  49.8159320   4.4108420  73.5328540  49.7137530
   5.9439090  77.0892340  42.0167150   5.2120210  77.5979150  42.3657250
   5.5463430  76.2722320  41.7155930   2.3816480  73.7646540  40.4219640
   2.3852540  73.3236490  39.5724180   3.2767600  74.0863870  40.5291460
   2.4436630  74.7658620  33.4126400   2.5649450  74.7245100  34.3612220
   2.0585140  75.6282770  33.2573130   6.4065000  72.5426020  41.4290090
   6.4237740  72.9934670  42.2731940   6.1580580  71.6431660  41.6423530
   9.8335750  69.9558200  47.2676470  10.1581520  69.2247860  47.7934450
   9.8692260  69.6371840  46.3657460   2.6824450  77.8248320  42.1685050
   3.0494580  77.3506890  42.9146390   2.4929510  78.6989890  42.5093390
   9.7593590  80.0683310  40.8762500  10.4792710  80.5638600  40.4858610
   9.5575410  79.3901200  40.2316370   5.2203530  71.4621270  35.0191890
   4.4068140  70.9634440  34.9437200   5.0265480  72.3019520  34.6028240
   5.1412390  80.1392370  46.7631500   5.0749700  79.2188040  46.5089090
   4.5117530  80.2367810  47.4776140   7.9351920  75.8340920  33.3154050
   8.8231540  76.1458150  33.1405390   7.9057010  74.9613170  32.9234630
   3.9312510  82.0064610  33.9942220   4.2728210  82.7506840  33.4985540
   3.1025220  82.3195730  34.3567050  10.2066190  77.1452760  32.7833910
  10.1229910  77.5766980  31.9330350  10.9260380  77.6051110  33.2160730
  11.2840330  79.6020280  45.8603880  10.5588520  80.1949060  45.6633270
  11.8115790  79.5943820  45.0617250  11.2353440  83.9995020  35.5116040
  10.5929600  83.3450640  35.7859760  10.8484100  84.4050110  34.7356710
   6.8139920  81.3280450  39.3587730   7.1663740  80.7308580  38.6989100
   5.9302250  81.0024680  39.5295980   2.9003200  82.0878140  36.7658140
   3.5874330  82.6347350  37.1465730   2.1135620  82.6318870  36.8007750
   2.2030410  79.0924170  36.3783500   2.6593190  79.9029420  36.6043690
   1.8518620  78.7747310  37.2101990   4.5063020  84.6030510  43.6075800
   5.1505240  84.8089890  44.2849220   4.8692460  83.8418910  43.1546650
   5.7795100  82.6062860  42.3253250   6.4217330  81.9056020  42.4385420
   6.3044450  83.3861300  42.1450140   9.6250820  82.8911480  32.0492390
   9.3988400  82.1741920  32.6417030   9.2347020  82.6423920  31.2114140
   7.5532720  83.4057760  45.5289310   7.8888960  83.9924450  46.2067230
   6.6333060  83.2750470  45.7587100   9.2067070  80.8083420  33.7106550
   8.9188770  81.2696110  34.4984430  10.0019240  80.3481190  33.9790770
   3.3821300  83.4549090  48.6977370   3.0618170  82.7358330  49.2423060
   2.7079660  84.1304160  48.7713430   6.5974900  73.6875250  44.0614170
   6.9655720  72.8670460  44.3893740   5.7373100  73.7477140  44.4769820
   9.9636930  72.6432190  34.8701730   9.3350090  72.7477860  34.1559960
   9.4688850  72.8628970  35.6595610   4.4095070  84.3637780  32.3035710
   4.5107050  84.1601770  31.3737690   3.5096810  84.1096060  32.5083490
   3.5576890  76.3414840  44.2852140   4.0562140  76.8160660  44.9503990
   3.6999840  75.4178360  44.4922170   5.9636390  71.6468800  37.7255400
   5.8404170  71.6654930  36.7764910   6.9120950  71.6947740  37.8453800
   3.0513180  86.8824100  36.9983380   3.3054680  86.8445490  36.0762750
   2.1025660  86.7557430  36.9911630  10.7643750  72.5582800  45.1280530
  10.2617350  73.2988200  45.4674340  11.5800410  72.9466800  44.8117320
   9.0565760  77.8015980  38.5741890   8.1155900  77.8166210  38.7489580
   9.3709830  77.0151940  39.0202190  11.0591340  84.9724830  40.2496150
  11.1838760  85.7956000  40.7219960  11.9256900  84.7615560  39.9020300
   6.3731780  82.3581980  49.0574270   5.7669940  82.3813580  48.3170020
   6.0685890  81.6265020  49.5941520   7.8032150  86.0862270  47.6683680
   8.7553900  86.0020290  47.6183920   7.6560370  86.7503980  48.3417470
  10.6941350  85.4656480  33.1675590  10.4082860  85.0521620  32.3529770
  10.4960900  86.3944190  33.0476110   2.1588580  81.4589760  31.6081200
   2.0539220  80.8442110  32.3342580   1.9912800  80.9355650  30.8244210
   2.3102900  80.1446560  47.5870430   1.5448570  80.7131560  47.5025100
   2.4918860  79.8522770  46.6938660   5.3991310  80.5209790  32.2123190
   4.8501410  80.9679090  32.8565930   6.0210570  80.0159040  32.7360860
   9.4526250  81.8751890  48.1445450  10.1935720  82.2127650  47.6412910
   8.6898930  82.0443950  47.5915220   3.5794070  78.5038320  31.3565590
   4.0999730  77.7887340  30.9906740   4.2262470  79.1424190  31.6566100
   8.1271910  79.9266720  46.6800660   8.5412930  80.0811800  47.5291080
   7.1922910  80.0521940  46.8426440   8.5994080  77.2662880  48.6839810
   9.1814850  76.5115200  48.5960290   8.7755850  77.7970320  47.9071290
   2.4827590  70.9832870  44.0284150   2.0344890  71.0057130  43.1829700
   1.8492790  70.5851890  44.6254450   2.8887140  79.8787200  44.6496590
   3.3075250  80.7219930  44.4772830   1.9695770  80.0159240  44.4203370
   5.2251040  77.6103380  46.0334430   5.3447250  77.0144520  46.7729270
   6.0845040  77.6473070  45.6135730   7.5638940  78.1640570  44.6096940
   7.0374160  78.6883190  44.0062080   7.9070280  78.7967960  45.2406670
   6.8113240  73.7690540  47.5243270   6.1228760  73.1072080  47.4593260
   7.5319260  73.3228810  47.9691730   7.4413640  70.3642170  33.5833530
   7.7215930  69.5210070  33.9392950   6.6679370  70.5965280  34.0972280
   3.5956770  87.4191420  46.0240970   3.5215470  88.3226560  46.3313340
   2.6935610  87.1003320  45.9963040   1.9793060  71.5969180  32.0280730
   1.6315060  70.9193170  31.4483180   2.1805830  71.1358690  32.8424120
   4.1442100  86.5849930  33.6467330   5.0392890  86.9234900  33.6686090
   4.1759730  85.8629340  33.0191610  11.1236450  85.1153600  46.3533530
  10.5238440  85.1746160  45.6097450  11.2530350  84.1758580  46.4830380
  12.3637900  82.8571420  31.6903240  11.5330860  82.9248070  32.1610470
  12.5409730  83.7475540  31.3870100  11.8194360  79.6018900  34.1937440
  12.5813270  80.1715550  34.2997130  11.8348730  79.0346100  34.9645750
  12.8254330  80.4569000  39.0379370  13.1963160  79.6736320  38.6315340
  13.4656260  81.1458100  38.8596670   9.8088090  81.8405580  44.4509690
   8.9947930  82.2702740  44.7135480  10.2162290  82.4523990  43.8378740
  11.8713530  79.8953270  31.3509960  12.1462370  80.8032150  31.2229180
  11.6824270  79.8315800  32.2871950   8.2689140  72.9198120  32.6463590
   8.6874020  72.7329100  31.8060250   7.9625200  72.0677170  32.9566520
  11.7678870  77.8322260  36.3439390  11.3922470  77.0650190  35.9120680
  11.0381990  78.2144960  36.8314320  11.1578490  76.9793780  45.9778910
  10.9264580  76.7506530  45.0776860  11.4183040  77.8993330  45.9323800
   9.5966560  72.2050210  48.7558610  10.4736740  72.2133610  49.1392610
   9.6087400  71.4681050  48.1450960  11.0429830  76.0579750  39.6446630
  11.5667310  75.5642400  39.0136800  11.6289250  76.1930110  40.3894200
  11.2219550  76.1419620  43.1666180  10.2722260  76.1083160  43.2811170
  11.4032560  77.0519730  42.9315950  10.5329800  75.3153100  35.5839040
  11.0288920  75.0823970  36.3687920  10.3345870  74.4764940  35.1676680
  11.9616960  73.9514050  38.1176720  11.8516240  73.7970090  39.0558990
  12.7224550  73.4234990  37.8752130  10.3082680  69.8908180  44.5759720
  10.9454900  70.5042320  44.9418910  10.4557570  69.9268840  43.6308950
  12.8507230  71.7821970  31.3582860  13.7756540  71.6503150  31.1501150
  12.8283020  71.8614790  32.3119310  12.9245720  72.5532630  33.9839570
  12.1297220  72.4877750  34.5132480  13.1289000  73.4883270  33.9724920
   9.8664140  86.5924180  37.9777960  10.4623210  86.2708750  37.3012380
  10.1242290  86.1196000  38.7691230   3.6787160  71.0434370  47.4834820
   3.6176050  71.6356200  48.2330230   4.6187540  70.9360330  47.3385080
   6.3161720  70.7004430  47.1227110   6.9302130  71.0183720  46.4608190
   6.8611280  70.2153020  47.7422970  12.7336900  86.5996060  44.5288950
  12.2395180  86.9964930  43.8116080  12.1250190  85.9745270  44.9226230
   7.0569760  69.2636570  43.4496400   6.1829600  69.5971680  43.2469330
   6.9480510  68.7909750  44.2748270   7.9641740  71.4707440  44.8338120
   7.6355100  70.6559200  44.4539850   8.9124040  71.4277250  44.7103810
  10.4176350  87.2419480  41.8075690   9.9579320  87.9935290  41.4333710
   9.7888810  86.5225950  41.7490490   3.5867570  86.4416210  41.8092800
   3.8745380  86.1870510  40.9325810   4.0990790  85.8893570  42.3998370
   4.8044580  70.1806410  42.3889310   4.0216370  70.6551910  42.6686070
   4.5107510  69.2761240  42.2802490   9.3565650  70.8829510  40.4338400
   9.7973740  70.8274610  39.5860000   9.0873240  71.7987520  40.5048580
  11.2204220  70.5144750  38.4447220  11.1592620  69.5705970  38.2978240
  11.9996250  70.6224840  38.9900680   2.6898800  72.5993160  37.9005340
   1.8773310  72.2250050  37.5601220   3.1940440  71.8438240  38.2026530
   7.1923780  69.2635610  39.1388410   7.7953150  69.8355820  39.6136930
   6.4516770  69.8275050  38.9162310  10.3358380  69.6657170  34.4128690
  10.5309010  70.5640620  34.6796120   9.5488250  69.4344250  34.9061640
   3.6539930  87.3632310  49.1761000   4.5807240  87.1276580  49.2196960
   3.6390360  88.1904310  48.6947030  11.8884990  86.9057880  36.1735250
  12.0637180  86.2195620  35.5296170  11.1906560  87.4304930  35.7811920
   7.4419000  69.4430640  49.5183350   7.3284450  69.7625250  50.4134870
   8.2588740  69.8443150  49.2220630  10.2217490  86.5902170  49.0002040
  11.0142810  86.0951400  48.7928000  10.5150640  87.2692310  49.6077650
   6.3477150  77.4623110  19.8818090   6.2671200  76.5477720  19.6109800
   5.9341570  77.9590180  19.1757800   4.4795190  79.2402130  21.7627360
   3.7037290  78.7602570  22.0525930   5.1308120  78.5607780  21.5883520
   8.5002620  83.6462320  20.5426490   8.0384150  82.8749560  20.8713660
   9.3128170  83.6728390  21.0478940   4.7265930  85.9320330  20.1630480
   4.1077370  86.3877830  19.5924920   5.5817710  86.0871790  19.7620180
   3.9204180  81.9159320  21.7697520   3.8512460  80.9749260  21.6086650
   4.6824040  82.0060730  22.3420090   4.9509350  74.7229700  21.9966450
   5.3274170  73.8501580  21.8840120   4.8528860  75.0588400  21.1056890
   8.7333470  72.2180140  18.9294790   9.5543090  71.7276710  18.9720270
   8.7667550  72.8077800  19.6826630  13.0233020  74.2346890  25.4938420
  12.3185190  74.6228600  24.9753530  13.2890940  74.9297180  26.0959350
   5.5929280  80.8159570  17.5562390   4.9746550  81.2809020  16.9925110
   6.1052530  81.5087050  17.9731900   8.9694950  74.1580520  21.7022330
   8.2650520  74.4465410  22.2825440   9.3307110  74.9680630  21.3421890
  10.5857730  83.7755650  23.9649810   9.9021250  84.4454760  23.9566480
  11.1252020  83.9736300  23.1994670  12.0381870  73.6035310  22.0931540
  11.0906780  73.6374290  22.2246970  12.3631860  74.4174260  22.4780900
   2.5701410  69.9032490  20.3887530   2.8776390  69.3479380  19.6723030
   1.6402110  70.0376950  20.2060520   8.1216470  85.6199780  22.6794990
   8.1343630  85.2162070  21.8117250   7.5691690  86.3947070  22.5756420
   9.4161890  82.3416000  17.7685160   9.3058220  81.3990330  17.8934580
   9.4130140  82.7031640  18.6547920   7.5201910  80.5229620  24.0077600
   7.9370700  80.3089730  23.1731060   8.2441730  80.7802410  24.5786220
   4.9582170  77.9681320  17.1247650   4.0311450  77.9018700  17.3536120
   5.1106990  78.9061450  17.0102890   4.9451250  74.2398320  14.1214810
   4.0054920  74.4012280  14.2067270   5.2634510  74.9584000  13.5750800
  11.4664010  78.9216840  24.0993840  10.6382640  78.9909930  23.6243970
  12.0614490  79.5071150  23.6309670   8.9879460  79.5301620  17.6282900
   8.3691880  79.1921170  16.9809200   8.9703910  78.8861380  18.3362090
   8.4306020  75.7086160  25.0448710   8.0177200  76.5339870  25.2988700
   7.6981970  75.1231200  24.8525070   9.1206120  85.7545490  25.7329690
   8.6436680  86.5617680  25.5402300   8.4367910  85.1023820  25.8855900
   7.1644160  78.7688430  14.6355650   7.6037440  77.9310860  14.4893470
   7.8772580  79.4017830  14.7219790   5.2739540  83.7084500  18.6036890
   5.7135450  84.4508830  18.1892280   5.2126430  83.9511070  19.5275850
  10.7461300  70.0231240  12.9496690  10.4333960  70.1158070  13.8495760
  11.5073770  70.6012270  12.8994120  12.7005330  85.5157430  30.8021080
  13.1765050  85.9940320  31.4810160  13.3212490  85.4474920  30.0766580
  12.1038580  82.7070280  27.9621090  12.2301640  82.4682160  27.0438270
  12.1459960  81.8754820  28.4343170   5.9655320  86.4098280  26.5315900
   6.4799990  86.3206290  27.3338330   5.1224400  86.7557980  26.8243810
   7.9409720  86.6953620  15.9599900   7.7810860  86.4056560  16.8581730
   7.7756430  85.9193750  15.4245130   7.6435850  84.2041180  14.5197900
   6.9501010  84.2018470  13.8600180   8.3858710  83.7800500  14.0892070
   7.2085780  85.8303890  18.5946390   7.6642730  85.0493270  18.9085010
   7.5478300  86.5410710  19.1387570  11.9562590  74.7602740  28.9270830
  11.3406860  75.2682410  28.3986290  11.6359010  73.8601070  28.8696770
   4.0176910  73.5994630  26.3933020   3.5556280  73.8077650  27.2052960
   3.6155020  72.7853980  26.0903690   9.0181420  74.8203580  27.5229680
   8.1675010  74.5209330  27.8438750   8.8583210  75.0645590  26.6113500
   6.1131130  76.3205330  29.6228470   6.4384540  75.4869080  29.2830700
   6.9011460  76.8433850  29.7706800   2.8465920  70.3536810  15.6703530
   2.2220100  70.3496680  16.3956840   2.7596040  69.4867770  15.2739500
   1.7683000  71.2773440  22.6487300   2.0655330  72.1836270  22.5679320
   2.3168560  70.7892220  22.0346870   6.7519080  75.8623050  17.1169600
   6.1527970  76.5858850  16.9333220   7.2998690  75.7999830  16.3346050
   1.9620530  76.7545260  29.1839220   1.8664130  75.8139990  29.0339620
   2.8052510  76.9760330  28.7887290   5.3583950  74.4986590  19.1472880
   5.7513520  74.8158790  18.3341570   5.7200800  73.6198470  19.2617400
   3.6676120  73.2493900  30.4069740   2.9774440  73.0566100  31.0415830
   4.4108420  73.5328540  30.9394040   5.9439090  77.0892340  23.2423660
   5.2120210  77.5979150  23.5913760   5.5463430  76.2722320  22.9412440
   2.3816480  73.7646540  21.6476150   2.3852540  73.3236490  20.7980690
   3.2767600  74.0863870  21.7547970   2.4436630  74.7658620  14.6382910
   2.5649450  74.7245100  15.5868730   2.0585140  75.6282770  14.4829640
   6.4065000  72.5426020  22.6546600   6.4237740  72.9934670  23.4988450
   6.1580580  71.6431660  22.8680040   9.8335750  69.9558200  28.4932980
  10.1581520  69.2247860  29.0190960   9.8692260  69.6371840  27.5913970
   9.7593590  80.0683310  22.1019010  10.4792710  80.5638600  21.7115120
   9.5575410  79.3901200  21.4572880   5.2203530  71.4621270  16.2448400
   4.4068140  70.9634440  16.1693710   5.0265480  72.3019520  15.8284750
   5.1412390  80.1392370  27.9888010   5.0749700  79.2188040  27.7345600
   4.5117530  80.2367810  28.7032650   7.9351920  75.8340920  14.5410560
   8.8231540  76.1458150  14.3661900   7.9057010  74.9613170  14.1491140
   3.9312510  82.0064610  15.2198730   4.2728210  82.7506840  14.7242050
   3.1025220  82.3195730  15.5823560   5.0729120  82.9612940  27.7391810
   5.0873660  82.0293900  27.5210720   4.3654220  83.0472700  28.3781580
  10.2066190  77.1452760  14.0090420  10.1229910  77.5766980  13.1586860
  10.9260380  77.6051110  14.4417240  11.2840330  79.6020280  27.0860390
  10.5588520  80.1949060  26.8889780  11.8115790  79.5943820  26.2873760
  11.2353440  83.9995020  16.7372550  10.5929600  83.3450640  17.0116270
  10.8484100  84.4050110  15.9613220   6.8139920  81.3280450  20.5844240
   7.1663740  80.7308580  19.9245610   5.9302250  81.0024680  20.7552490
   2.9003200  82.0878140  17.9914650   3.5874330  82.6347350  18.3722240
   2.1135620  82.6318870  18.0264260   2.2030410  79.0924170  17.6040010
   2.6593190  79.9029420  17.8300200   1.8518620  78.7747310  18.4358500
   4.5063020  84.6030510  24.8332310   5.1505240  84.8089890  25.5105730
   4.8692460  83.8418910  24.3803160   5.7795100  82.6062860  23.5509760
   6.4217330  81.9056020  23.6641930   6.3044450  83.3861300  23.3706650
   9.6250820  82.8911480  13.2748900   9.3988400  82.1741920  13.8673540
   9.2347020  82.6423920  12.4370650   7.5532720  83.4057760  26.7545820
   7.8888960  83.9924450  27.4323740   6.6333060  83.2750470  26.9843610
   9.2067070  80.8083420  14.9363060   8.9188770  81.2696110  15.7240940
  10.0019240  80.3481190  15.2047280   3.3821300  83.4549090  29.9233880
   3.0618170  82.7358330  30.4679570   2.7079660  84.1304160  29.9969940
   6.5974900  73.6875250  25.2870680   6.9655720  72.8670460  25.6150250
   5.7373100  73.7477140  25.7026330   9.9636930  72.6432190  16.0958240
   9.3350090  72.7477860  15.3816470   9.4688850  72.8628970  16.8852120
   4.4095070  84.3637780  13.5292220   4.5107050  84.1601770  12.5994200
   3.5096810  84.1096060  13.7340000   3.5576890  76.3414840  25.5108650
   4.0562140  76.8160660  26.1760500   3.6999840  75.4178360  25.7178680
   5.9636390  71.6468800  18.9511910   5.8404170  71.6654930  18.0021420
   6.9120950  71.6947740  19.0710310   3.0513180  86.8824100  18.2239890
   3.3054680  86.8445490  17.3019260   2.1025660  86.7557430  18.2168140
  10.7643750  72.5582800  26.3537040  10.2617350  73.2988200  26.6930850
  11.5800410  72.9466800  26.0373830   9.0565760  77.8015980  19.7998400
   8.1155900  77.8166210  19.9746090   9.3709830  77.0151940  20.2458700
  11.0591340  84.9724830  21.4752660  11.1838760  85.7956000  21.9476470
  11.9256900  84.7615560  21.1276810   6.3731780  82.3581980  30.2830780
   5.7669940  82.3813580  29.5426530   6.0685890  81.6265020  30.8198030
   7.8032150  86.0862270  28.8940190   8.7553900  86.0020290  28.8440430
   7.6560370  86.7503980  29.5673980  10.6941350  85.4656480  14.3932100
  10.4082860  85.0521620  13.5786280  10.4960900  86.3944190  14.2732620
   2.1588580  81.4589760  12.8337710   2.0539220  80.8442110  13.5599090
   1.9912800  80.9355650  12.0500720   2.3102900  80.1446560  28.8126940
   1.5448570  80.7131560  28.7281610   2.4918860  79.8522770  27.9195170
   5.3991310  80.5209790  13.4379700   4.8501410  80.9679090  14.0822440
   6.0210570  80.0159040  13.9617370   9.4526250  81.8751890  29.3701960
  10.1935720  82.2127650  28.8669420   8.6898930  82.0443950  28.8171730
   3.5794070  78.5038320  12.5822100   4.0999730  77.7887340  12.2163250
   4.2262470  79.1424190  12.8822610   8.1271910  79.9266720  27.9057170
   8.5412930  80.0811800  28.7547590   7.1922910  80.0521940  28.0682950
   8.5994080  77.2662880  29.9096320   9.1814850  76.5115200  29.8216800
   8.7755850  77.7970320  29.1327800   2.4827590  70.9832870  25.2540660
   2.0344890  71.0057130  24.4086210   1.8492790  70.5851890  25.8510960
   2.8887140  79.8787200  25.8753100   3.3075250  80.7219930  25.7029340
   1.9695770  80.0159240  25.6459880   5.2251040  77.6103380  27.2590940
   5.3447250  77.0144520  27.9985780   6.0845040  77.6473070  26.8392240
   7.5638940  78.1640570  25.8353450   7.0374160  78.6883190  25.2318590
   7.9070280  78.7967960  26.4663180   6.8113240  73.7690540  28.7499780
   6.1228760  73.1072080  28.6849770   7.5319260  73.3228810  29.1948240
   7.4413640  70.3642170  14.8090040   7.7215930  69.5210070  15.1649460
   6.6679370  70.5965280  15.3228790   3.5956770  87.4191420  27.2497480
   3.5215470  88.3226560  27.5569850   2.6935610  87.1003320  27.2219550
   1.9793060  71.5969180  13.2537240   1.6315060  70.9193170  12.6739690
   2.1805830  71.1358690  14.0680630   4.1442100  86.5849930  14.8723840
   5.0392890  86.9234900  14.8942600   4.1759730  85.8629340  14.2448120
  11.1236450  85.1153600  27.5790040  10.5238440  85.1746160  26.8353960
  11.2530350  84.1758580  27.7086890  12.3637900  82.8571420  12.9159750
  11.5330860  82.9248070  13.3866980  12.5409730  83.7475540  12.6126610
  11.8194360  79.6018900  15.4193950  12.5813270  80.1715550  15.5253640
  11.8348730  79.0346100  16.1902260  12.8254330  80.4569000  20.2635880
  13.1963160  79.6736320  19.8571850  13.4656260  81.1458100  20.0853180
   9.8088090  81.8405580  25.6766200   8.9947930  82.2702740  25.9391990
  10.2162290  82.4523990  25.0635250  11.8713530  79.8953270  12.5766470
  12.1462370  80.8032150  12.4485690  11.6824270  79.8315800  13.5128460
   8.2689140  72.9198120  13.8720100   8.6874020  72.7329100  13.0316760
   7.9625200  72.0677170  14.1823030  11.7678870  77.8322260  17.5695900
  11.3922470  77.0650190  17.1377190  11.0381990  78.2144960  18.0570830
  11.1578490  76.9793780  27.2035420  10.9264580  76.7506530  26.3033370
  11.4183040  77.8993330  27.1580310   9.5966560  72.2050210  29.9815120
  10.4736740  72.2133610  30.3649120   9.6087400  71.4681050  29.3707470
  11.0429830  76.0579750  20.8703140  11.5667310  75.5642400  20.2393310
  11.6289250  76.1930110  21.6150710  11.2219550  76.1419620  24.3922690
  10.2722260  76.1083160  24.5067680  11.4032560  77.0519730  24.1572460
  10.5329800  75.3153100  16.8095550  11.0288920  75.0823970  17.5944430
  10.3345870  74.4764940  16.3933190  11.9616960  73.9514050  19.3433230
  11.8516240  73.7970090  20.2815500  12.7224550  73.4234990  19.1008640
  10.3082680  69.8908180  25.8016230  10.9454900  70.5042320  26.1675420
  10.4557570  69.9268840  24.8565460  12.8507230  71.7821970  12.5839370
  13.7756540  71.6503150  12.3757660  12.8283020  71.8614790  13.5375820
  12.9245720  72.5532630  15.2096080  12.1297220  72.4877750  15.7388990
  13.1289000  73.4883270  15.1981430   9.8664140  86.5924180  19.2034470
  10.4623210  86.2708750  18.5268890  10.1242290  86.1196000  19.9947740
   3.6787160  71.0434370  28.7091330   3.6176050  71.6356200  29.4586740
   4.6187540  70.9360330  28.5641590   6.3161720  70.7004430  28.3483620
   6.9302130  71.0183720  27.6864700   6.8611280  70.2153020  28.9679480
  12.7336900  86.5996060  25.7545460  12.2395180  86.9964930  25.0372590
  12.1250190  85.9745270  26.1482740   7.0569760  69.2636570  24.6752910
   6.1829600  69.5971680  24.4725840   6.9480510  68.7909750  25.5004780
   7.9641740  71.4707440  26.0594630   7.6355100  70.6559200  25.6796360
   8.9124040  71.4277250  25.9360320  10.4176350  87.2419480  23.0332200
   9.9579320  87.9935290  22.6590220   9.7888810  86.5225950  22.9747000
   3.5867570  86.4416210  23.0349310   3.8745380  86.1870510  22.1582320
   4.0990790  85.8893570  23.6254880   4.8044580  70.1806410  23.6145820
   4.0216370  70.6551910  23.8942580   4.5107510  69.2761240  23.5059000
   9.3565650  70.8829510  21.6594910   9.7973740  70.8274610  20.8116510
   9.0873240  71.7987520  21.7305090  11.2204220  70.5144750  19.6703730
  11.1592620  69.5705970  19.5234750  11.9996250  70.6224840  20.2157190
   2.6898800  72.5993160  19.1261850   1.8773310  72.2250050  18.7857730
   3.1940440  71.8438240  19.4283040   7.1923780  69.2635610  20.3644920
   7.7953150  69.8355820  20.8393440   6.4516770  69.8275050  20.1418820
  10.3358380  69.6657170  15.6385200  10.5309010  70.5640620  15.9052630
   9.5488250  69.4344250  16.1318150   3.6539930  87.3632310  30.4017510
   4.5807240  87.1276580  30.4453470   3.6390360  88.1904310  29.9203540
  11.8884990  86.9057880  17.3991760  12.0637180  86.2195620  16.7552680
  11.1906560  87.4304930  17.0068430   7.4419000  69.4430640  30.7439860
   7.3284450  69.7625250  31.6391380   8.2588740  69.8443150  30.4477140
  10.2217490  86.5902170  30.2258550  11.0142810  86.0951400  30.0184510
  10.5150640  87.2692310  30.8334160   4.4795190  79.2402130   2.9883870
   3.7037290  78.7602570   3.2782440   5.1308120  78.5607780   2.8140030
   8.5002620  83.6462320   1.7683000   8.0384150  82.8749560   2.0970170
   9.3128170  83.6728390   2.2735450   3.9204180  81.9159320   2.9954030
   3.8512460  80.9749260   2.8343160   4.6824040  82.0060730   3.5676600
   4.9509350  74.7229700   3.2222960   5.3274170  73.8501580   3.1096630
   4.8528860  75.0588400   2.3313400  13.0233020  74.2346890   6.7194930
  12.3185190  74.6228600   6.2010040  13.2890940  74.9297180   7.3215860
   8.9694950  74.1580520   2.9278840   8.2650520  74.4465410   3.5081950
   9.3307110  74.9680630   2.5678400  10.5857730  83.7755650   5.1906320
   9.9021250  84.4454760   5.1822990  11.1252020  83.9736300   4.4251180
  12.0381870  73.6035310   3.3188050  11.0906780  73.6374290   3.4503480
  12.3631860  74.4174260   3.7037410   8.1216470  85.6199780   3.9051500
   8.1343630  85.2162070   3.0373760   7.5691690  86.3947070   3.8012930
   7.5201910  80.5229620   5.2334110   7.9370700  80.3089730   4.3987570
   8.2441730  80.7802410   5.8042730  11.4664010  78.9216840   5.3250350
  10.6382640  78.9909930   4.8500480  12.0614490  79.5071150   4.8566180
   8.4306020  75.7086160   6.2705220   8.0177200  76.5339870   6.5245210
   7.6981970  75.1231200   6.0781580   9.1206120  85.7545490   6.9586200
   8.6436680  86.5617680   6.7658810   8.4367910  85.1023820   7.1112410
  12.7005330  85.5157430  12.0277590  13.1765050  85.9940320  12.7066670
  13.3212490  85.4474920  11.3023090  12.1038580  82.7070280   9.1877600
  12.2301640  82.4682160   8.2694780  12.1459960  81.8754820   9.6599680
   5.9655320  86.4098280   7.7572410   6.4799990  86.3206290   8.5594840
   5.1224400  86.7557980   8.0500320  11.9562590  74.7602740  10.1527340
  11.3406860  75.2682410   9.6242800  11.6359010  73.8601070  10.0953280
   4.0176910  73.5994630   7.6189530   3.5556280  73.8077650   8.4309470
   3.6155020  72.7853980   7.3160200   9.0181420  74.8203580   8.7486190
   8.1675010  74.5209330   9.0695260   8.8583210  75.0645590   7.8370010
   6.1131130  76.3205330  10.8484980   6.4384540  75.4869080  10.5087210
   6.9011460  76.8433850  10.9963310   1.7683000  71.2773440   3.8743810
   2.0655330  72.1836270   3.7935830   2.3168560  70.7892220   3.2603380
   1.9620530  76.7545260  10.4095730   1.8664130  75.8139990  10.2596130
   2.8052510  76.9760330  10.0143800   3.6676120  73.2493900  11.6326250
   2.9774440  73.0566100  12.2672340   4.4108420  73.5328540  12.1650550
   5.9439090  77.0892340   4.4680170   5.2120210  77.5979150   4.8170270
   5.5463430  76.2722320   4.1668950   2.3816480  73.7646540   2.8732660
   2.3852540  73.3236490   2.0237200   3.2767600  74.0863870   2.9804480
   6.4065000  72.5426020   3.8803110   6.4237740  72.9934670   4.7244960
   6.1580580  71.6431660   4.0936550   9.8335750  69.9558200   9.7189490
  10.1581520  69.2247860  10.2447470   9.8692260  69.6371840   8.8170480
   2.6824450  77.8248320   4.6198070   3.0494580  77.3506890   5.3659410
   2.4929510  78.6989890   4.9606410   9.7593590  80.0683310   3.3275520
  10.4792710  80.5638600   2.9371630   9.5575410  79.3901200   2.6829390
   5.1412390  80.1392370   9.2144520   5.0749700  79.2188040   8.9602110
   4.5117530  80.2367810   9.9289160   5.0729120  82.9612940   8.9648320
   5.0873660  82.0293900   8.7467230   4.3654220  83.0472700   9.6038090
  11.2840330  79.6020280   8.3116900  10.5588520  80.1949060   8.1146290
  11.8115790  79.5943820   7.5130270   4.5063020  84.6030510   6.0588820
   5.1505240  84.8089890   6.7362240   4.8692460  83.8418910   5.6059670
   5.7795100  82.6062860   4.7766270   6.4217330  81.9056020   4.8898440
   6.3044450  83.3861300   4.5963160   7.5532720  83.4057760   7.9802330
   7.8888960  83.9924450   8.6580250   6.6333060  83.2750470   8.2100120
   3.3821300  83.4549090  11.1490390   3.0618170  82.7358330  11.6936080
   2.7079660  84.1304160  11.2226450   6.5974900  73.6875250   6.5127190
   6.9655720  72.8670460   6.8406760   5.7373100  73.7477140   6.9282840
   3.5576890  76.3414840   6.7365160   4.0562140  76.8160660   7.4017010
   3.6999840  75.4178360   6.9435190  10.7643750  72.5582800   7.5793550
  10.2617350  73.2988200   7.9187360  11.5800410  72.9466800   7.2630340
  11.0591340  84.9724830   2.7009170  11.1838760  85.7956000   3.1732980
  11.9256900  84.7615560   2.3533320   6.3731780  82.3581980  11.5087290
   5.7669940  82.3813580  10.7683040   6.0685890  81.6265020  12.0454540
   7.8032150  86.0862270  10.1196700   8.7553900  86.0020290  10.0696940
   7.6560370  86.7503980  10.7930490   2.3102900  80.1446560  10.0383450
   1.5448570  80.7131560   9.9538120   2.4918860  79.8522770   9.1451680
   9.4526250  81.8751890  10.5958470  10.1935720  82.2127650  10.0925930
   8.6898930  82.0443950  10.0428240   8.1271910  79.9266720   9.1313680
   8.5412930  80.0811800   9.9804100   7.1922910  80.0521940   9.2939460
   8.5994080  77.2662880  11.1352830   9.1814850  76.5115200  11.0473310
   8.7755850  77.7970320  10.3584310   2.4827590  70.9832870   6.4797170
   2.0344890  71.0057130   5.6342720   1.8492790  70.5851890   7.0767470
   2.8887140  79.8787200   7.1009610   3.3075250  80.7219930   6.9285850
   1.9695770  80.0159240   6.8716390   5.2251040  77.6103380   8.4847450
   5.3447250  77.0144520   9.2242290   6.0845040  77.6473070   8.0648750
   7.5638940  78.1640570   7.0609960   7.0374160  78.6883190   6.4575100
   7.9070280  78.7967960   7.6919690   6.8113240  73.7690540   9.9756290
   6.1228760  73.1072080   9.9106280   7.5319260  73.3228810  10.4204750
   3.5956770  87.4191420   8.4753990   3.5215470  88.3226560   8.7826360
   2.6935610  87.1003320   8.4476060  11.1236450  85.1153600   8.8046550
  10.5238440  85.1746160   8.0610470  11.2530350  84.1758580   8.9343400
   9.8088090  81.8405580   6.9022710   8.9947930  82.2702740   7.1648500
  10.2162290  82.4523990   6.2891760  11.1578490  76.9793780   8.4291930
  10.9264580  76.7506530   7.5289880  11.4183040  77.8993330   8.3836820
   9.5966560  72.2050210  11.2071630  10.4736740  72.2133610  11.5905630
   9.6087400  71.4681050  10.5963980  11.0429830  76.0579750   2.0959650
  11.5667310  75.5642400   1.4649820  11.6289250  76.1930110   2.8407220
  11.2219550  76.1419620   5.6179200  10.2722260  76.1083160   5.7324190
  11.4032560  77.0519730   5.3828970  10.3082680  69.8908180   7.0272740
  10.9454900  70.5042320   7.3931930  10.4557570  69.9268840   6.0821970
   3.6787160  71.0434370   9.9347840   3.6176050  71.6356200  10.6843250
   4.6187540  70.9360330   9.7898100   6.3161720  70.7004430   9.5740130
   6.9302130  71.0183720   8.9121210   6.8611280  70.2153020  10.1935990
  12.7336900  86.5996060   6.9801970  12.2395180  86.9964930   6.2629100
  12.1250190  85.9745270   7.3739250   7.0569760  69.2636570   5.9009420
   6.1829600  69.5971680   5.6982350   6.9480510  68.7909750   6.7261290
   7.9641740  71.4707440   7.2851140   7.6355100  70.6559200   6.9052870
   8.9124040  71.4277250   7.1616830  10.4176350  87.2419480   4.2588710
   9.9579320  87.9935290   3.8846730   9.7888810  86.5225950   4.2003510
   3.5867570  86.4416210   4.2605820   3.8745380  86.1870510   3.3838830
   4.0990790  85.8893570   4.8511390   4.8044580  70.1806410   4.8402330
   4.0216370  70.6551910   5.1199090   4.5107510  69.2761240   4.7315510
   9.3565650  70.8829510   2.8851420   9.7973740  70.8274610   2.0373020
   9.0873240  71.7987520   2.9561600   3.6539930  87.3632310  11.6274020
   4.5807240  87.1276580  11.6709980   3.6390360  88.1904310  11.1460050
  10.2217490  86.5902170  11.4515060  11.0142810  86.0951400  11.2441020
  10.5150640  87.2692310  12.0590670   6.3477150  58.6879620  57.4305070
   6.2671200  57.7734230  57.1596780   5.9341570  59.1846690  56.7244780
   4.4795190  60.4658640  59.3114340   3.7037290  59.9859080  59.6012910
   5.1308120  59.7864290  59.1370500   8.5002620  64.8718830  58.0913470
   8.0384150  64.1006070  58.4200640   9.3128170  64.8984900  58.5965920
   4.7265930  67.1576840  57.7117460   4.1077370  67.6134340  57.1411900
   5.5817710  67.3128300  57.3107160   3.9204180  63.1415830  59.3184500
   3.8512460  62.2005770  59.1573630   4.6824040  63.2317240  59.8907070
   4.9509350  55.9486210  59.5453430   5.3274170  55.0758090  59.4327100
   4.8528860  56.2844910  58.6543870   8.7333470  53.4436650  56.4781770
   9.5543090  52.9533220  56.5207250   8.7667550  54.0334310  57.2313610
   5.5929280  62.0416080  55.1049370   4.9746550  62.5065530  54.5412090
   6.1052530  62.7343560  55.5218880   8.9694950  55.3837030  59.2509310
   8.2650520  55.6721920  59.8312420   9.3307110  56.1937140  58.8908870
  12.0381870  54.8291820  59.6418520  11.0906780  54.8630800  59.7733950
  12.3631860  55.6430770  60.0267880   2.5701410  51.1289000  57.9374510
   2.8776390  50.5735890  57.2210010   1.6402110  51.2633460  57.7547500
   8.1216470  66.8456290  60.2281970   8.1343630  66.4418580  59.3604230
   7.5691690  67.6203580  60.1243400   9.4161890  63.5672510  55.3172140
   9.3058220  62.6246840  55.4421560   9.4130140  63.9288150  56.2034900
   4.9582170  59.1937830  54.6734630   4.0311450  59.1275210  54.9023100
   5.1106990  60.1317960  54.5589870   4.9451250  55.4654830  51.6701790
   4.0054920  55.6268790  51.7554250   5.2634510  56.1840510  51.1237780
   8.9879460  60.7558130  55.1769880   8.3691880  60.4177680  54.5296180
   8.9703910  60.1117890  55.8849070   7.1644160  59.9944940  52.1842630
   7.6037440  59.1567370  52.0380450   7.8772580  60.6274340  52.2706770
   5.2739540  64.9341010  56.1523870   5.7135450  65.6765340  55.7379260
   5.2126430  65.1767580  57.0762830  10.7461300  51.2487750  50.4983670
  10.4333960  51.3414580  51.3982740  11.5073770  51.8268780  50.4481100
   7.9409720  67.9210130  53.5086880   7.7810860  67.6313070  54.4068710
   7.7756430  67.1450260  52.9732110   7.6435850  65.4297690  52.0684880
   6.9501010  65.4274980  51.4087160   8.3858710  65.0057010  51.6379050
   7.2085780  67.0560400  56.1433370   7.6642730  66.2749780  56.4571990
   7.5478300  67.7667220  56.6874550   2.8465920  51.5793320  53.2190510
   2.2220100  51.5753190  53.9443820   2.7596040  50.7124280  52.8226480
   1.7683000  52.5029950  60.1974280   2.0655330  53.4092780  60.1166300
   2.3168560  52.0148730  59.5833850   6.7519080  57.0879560  54.6656580
   6.1527970  57.8115360  54.4820200   7.2998690  57.0256340  53.8833030
   5.3583950  55.7243100  56.6959860   5.7513520  56.0415300  55.8828550
   5.7200800  54.8454980  56.8104380   2.3816480  54.9903050  59.1963130
   2.3852540  54.5493000  58.3467670   3.2767600  55.3120380  59.3034950
   2.4436630  55.9915130  52.1869890   2.5649450  55.9501610  53.1355710
   2.0585140  56.8539280  52.0316620   9.7593590  61.2939820  59.6505990
  10.4792710  61.7895110  59.2602100   9.5575410  60.6157710  59.0059860
   5.2203530  52.6877780  53.7935380   4.4068140  52.1890950  53.7180690
   5.0265480  53.5276030  53.3771730   7.9351920  57.0597430  52.0897540
   8.8231540  57.3714660  51.9148880   7.9057010  56.1869680  51.6978120
   3.9312510  63.2321120  52.7685710   4.2728210  63.9763350  52.2729030
   3.1025220  63.5452240  53.1310540  10.2066190  58.3709270  51.5577400
  10.1229910  58.8023490  50.7073840  10.9260380  58.8307620  51.9904220
  11.2353440  65.2251530  54.2859530  10.5929600  64.5707150  54.5603250
  10.8484100  65.6306620  53.5100200   6.8139920  62.5536960  58.1331220
   7.1663740  61.9565090  57.4732590   5.9302250  62.2281190  58.3039470
   2.9003200  63.3134650  55.5401630   3.5874330  63.8603860  55.9209220
   2.1135620  63.8575380  55.5751240   2.2030410  60.3180680  55.1526990
   2.6593190  61.1285930  55.3787180   1.8518620  60.0003820  55.9845480
   9.6250820  64.1167990  50.8235880   9.3988400  63.3998430  51.4160520
   9.2347020  63.8680430  49.9857630   9.2067070  62.0339930  52.4850040
   8.9188770  62.4952620  53.2727920  10.0019240  61.5737700  52.7534260
   9.9636930  53.8688700  53.6445220   9.3350090  53.9734370  52.9303450
   9.4688850  54.0885480  54.4339100   4.4095070  65.5894290  51.0779200
   4.5107050  65.3858280  50.1481180   3.5096810  65.3352570  51.2826980
   5.9636390  52.8725310  56.4998890   5.8404170  52.8911440  55.5508400
   6.9120950  52.9204250  56.6197290   3.0513180  68.1080610  55.7726870
   3.3054680  68.0702000  54.8506240   2.1025660  67.9813940  55.7655120
   9.0565760  59.0272490  57.3485380   8.1155900  59.0422720  57.5233070
   9.3709830  58.2408450  57.7945680  11.0591340  66.1981340  59.0239640
  11.1838760  67.0212510  59.4963450  11.9256900  65.9872070  58.6763790
  10.6941350  66.6912990  51.9419080  10.4082860  66.2778130  51.1273260
  10.4960900  67.6200700  51.8219600   2.1588580  62.6846270  50.3824690
   2.0539220  62.0698620  51.1086070   1.9912800  62.1612160  49.5987700
   5.3991310  61.7466300  50.9866680   4.8501410  62.1935600  51.6309420
   6.0210570  61.2415550  51.5104350   3.5794070  59.7294830  50.1309080
   4.0999730  59.0143850  49.7650230   4.2262470  60.3680700  50.4309590
   7.4413640  51.5898680  52.3577020   7.7215930  50.7466580  52.7136440
   6.6679370  51.8221790  52.8715770   1.9793060  52.8225690  50.8024220
   1.6315060  52.1449680  50.2226670   2.1805830  52.3615200  51.6167610
   4.1442100  67.8106440  52.4210820   5.0392890  68.1491410  52.4429580
   4.1759730  67.0885850  51.7935100  12.3637900  64.0827930  50.4646730
  11.5330860  64.1504580  50.9353960  12.5409730  64.9732050  50.1613590
  11.8194360  60.8275410  52.9680930  12.5813270  61.3972060  53.0740620
  11.8348730  60.2602610  53.7389240  12.8254330  61.6825510  57.8122860
  13.1963160  60.8992830  57.4058830  13.4656260  62.3714610  57.6340160
  11.8713530  61.1209780  50.1253450  12.1462370  62.0288660  49.9972670
  11.6824270  61.0572310  51.0615440   8.2689140  54.1454630  51.4207080
   8.6874020  53.9585610  50.5803740   7.9625200  53.2933680  51.7310010
  11.7678870  59.0578770  55.1182880  11.3922470  58.2906700  54.6864170
  11.0381990  59.4401470  55.6057810  11.0429830  57.2836260  58.4190120
  11.5667310  56.7898910  57.7880290  11.6289250  57.4186620  59.1637690
  10.5329800  56.5409610  54.3582530  11.0288920  56.3080480  55.1431410
  10.3345870  55.7021450  53.9420170  11.9616960  55.1770560  56.8920210
  11.8516240  55.0226600  57.8302480  12.7224550  54.6491500  56.6495620
  12.8507230  53.0078480  50.1326350  13.7756540  52.8759660  49.9244640
  12.8283020  53.0871300  51.0862800  12.9245720  53.7789140  52.7583060
  12.1297220  53.7134260  53.2875970  13.1289000  54.7139780  52.7468410
   9.8664140  67.8180690  56.7521450  10.4623210  67.4965260  56.0755870
  10.1242290  67.3452510  57.5434720   9.3565650  52.1086020  59.2081890
   9.7973740  52.0531120  58.3603490   9.0873240  53.0244030  59.2792070
  11.2204220  51.7401260  57.2190710  11.1592620  50.7962480  57.0721730
  11.9996250  51.8481350  57.7644170   2.6898800  53.8249670  56.6748830
   1.8773310  53.4506560  56.3344710   3.1940440  53.0694750  56.9770020
   7.1923780  50.4892120  57.9131900   7.7953150  51.0612330  58.3880420
   6.4516770  51.0531560  57.6905800  10.3358380  50.8913680  53.1872180
  10.5309010  51.7897130  53.4539610   9.5488250  50.6600760  53.6805130
  11.8884990  68.1314390  54.9478740  12.0637180  67.4452130  54.3039660
  11.1906560  68.6561440  54.5555410   6.3477150  58.6879620  38.6561580
   6.2671200  57.7734230  38.3853290   5.9341570  59.1846690  37.9501290
   4.4795190  60.4658640  40.5370850   3.7037290  59.9859080  40.8269420
   5.1308120  59.7864290  40.3627010   8.5002620  64.8718830  39.3169980
   8.0384150  64.1006070  39.6457150   9.3128170  64.8984900  39.8222430
   4.7265930  67.1576840  38.9373970   4.1077370  67.6134340  38.3668410
   5.5817710  67.3128300  38.5363670   3.9204180  63.1415830  40.5441010
   3.8512460  62.2005770  40.3830140   4.6824040  63.2317240  41.1163580
   4.9509350  55.9486210  40.7709940   5.3274170  55.0758090  40.6583610
   4.8528860  56.2844910  39.8800380   8.7333470  53.4436650  37.7038280
   9.5543090  52.9533220  37.7463760   8.7667550  54.0334310  38.4570120
  13.0233020  55.4603400  44.2681910  12.3185190  55.8485110  43.7497020
  13.2890940  56.1553690  44.8702840   5.5929280  62.0416080  36.3305880
   4.9746550  62.5065530  35.7668600   6.1052530  62.7343560  36.7475390
   8.9694950  55.3837030  40.4765820   8.2650520  55.6721920  41.0568930
   9.3307110  56.1937140  40.1165380  12.0381870  54.8291820  40.8675030
  11.0906780  54.8630800  40.9990460  12.3631860  55.6430770  41.2524390
   2.5701410  51.1289000  39.1631020   2.8776390  50.5735890  38.4466520
   1.6402110  51.2633460  38.9804010   8.1216470  66.8456290  41.4538480
   8.1343630  66.4418580  40.5860740   7.5691690  67.6203580  41.3499910
   9.4161890  63.5672510  36.5428650   9.3058220  62.6246840  36.6678070
   9.4130140  63.9288150  37.4291410   7.5201910  61.7486130  42.7821090
   7.9370700  61.5346240  41.9474550   8.2441730  62.0058920  43.3529710
   4.9582170  59.1937830  35.8991140   4.0311450  59.1275210  36.1279610
   5.1106990  60.1317960  35.7846380   4.9451250  55.4654830  32.8958300
   4.0054920  55.6268790  32.9810760   5.2634510  56.1840510  32.3494290
   8.9879460  60.7558130  36.4026390   8.3691880  60.4177680  35.7552690
   8.9703910  60.1117890  37.1105580   8.4306020  56.9342670  43.8192200
   8.0177200  57.7596380  44.0732190   7.6981970  56.3487710  43.6268560
   9.1206120  66.9802000  44.5073180   8.6436680  67.7874190  44.3145790
   8.4367910  66.3280330  44.6599390   7.1644160  59.9944940  33.4099140
   7.6037440  59.1567370  33.2636960   7.8772580  60.6274340  33.4963280
   5.2739540  64.9341010  37.3780380   5.7135450  65.6765340  36.9635770
   5.2126430  65.1767580  38.3019340  10.7461300  51.2487750  31.7240180
  10.4333960  51.3414580  32.6239250  11.5073770  51.8268780  31.6737610
  12.7005330  66.7413940  49.5764570  13.1765050  67.2196830  50.2553650
  13.3212490  66.6731430  48.8510070  12.1038580  63.9326790  46.7364580
  12.2301640  63.6938670  45.8181760  12.1459960  63.1011330  47.2086660
   5.9655320  67.6354790  45.3059390   6.4799990  67.5462800  46.1081820
   5.1224400  67.9814490  45.5987300   7.9409720  67.9210130  34.7343390
   7.7810860  67.6313070  35.6325220   7.7756430  67.1450260  34.1988620
   7.6435850  65.4297690  33.2941390   6.9501010  65.4274980  32.6343670
   8.3858710  65.0057010  32.8635560   7.2085780  67.0560400  37.3689880
   7.6642730  66.2749780  37.6828500   7.5478300  67.7667220  37.9131060
  11.9562590  55.9859250  47.7014320  11.3406860  56.4938920  47.1729780
  11.6359010  55.0857580  47.6440260   4.0176910  54.8251140  45.1676510
   3.5556280  55.0334160  45.9796450   3.6155020  54.0110490  44.8647180
   9.0181420  56.0460090  46.2973170   8.1675010  55.7465840  46.6182240
   8.8583210  56.2902100  45.3856990   6.1131130  57.5461840  48.3971960
   6.4384540  56.7125590  48.0574190   6.9011460  58.0690360  48.5450290
   2.8465920  51.5793320  34.4447020   2.2220100  51.5753190  35.1700330
   2.7596040  50.7124280  34.0482990   1.7683000  52.5029950  41.4230790
   2.0655330  53.4092780  41.3422810   2.3168560  52.0148730  40.8090360
   6.7519080  57.0879560  35.8913090   6.1527970  57.8115360  35.7076710
   7.2998690  57.0256340  35.1089540   1.9620530  57.9801770  47.9582710
   1.8664130  57.0396500  47.8083110   2.8052510  58.2016840  47.5630780
   5.3583950  55.7243100  37.9216370   5.7513520  56.0415300  37.1085060
   5.7200800  54.8454980  38.0360890   3.6676120  54.4750410  49.1813230
   2.9774440  54.2822610  49.8159320   4.4108420  54.7585050  49.7137530
   5.9439090  58.3148850  42.0167150   5.2120210  58.8235660  42.3657250
   5.5463430  57.4978830  41.7155930   2.3816480  54.9903050  40.4219640
   2.3852540  54.5493000  39.5724180   3.2767600  55.3120380  40.5291460
   2.4436630  55.9915130  33.4126400   2.5649450  55.9501610  34.3612220
   2.0585140  56.8539280  33.2573130   6.4065000  53.7682530  41.4290090
   6.4237740  54.2191180  42.2731940   6.1580580  52.8688170  41.6423530
   9.8335750  51.1814710  47.2676470  10.1581520  50.4504370  47.7934450
   9.8692260  50.8628350  46.3657460   2.6824450  59.0504830  42.1685050
   3.0494580  58.5763400  42.9146390   2.4929510  59.9246400  42.5093390
   9.7593590  61.2939820  40.8762500  10.4792710  61.7895110  40.4858610
   9.5575410  60.6157710  40.2316370   5.2203530  52.6877780  35.0191890
   4.4068140  52.1890950  34.9437200   5.0265480  53.5276030  34.6028240
   5.1412390  61.3648880  46.7631500   5.0749700  60.4444550  46.5089090
   4.5117530  61.4624320  47.4776140   7.9351920  57.0597430  33.3154050
   8.8231540  57.3714660  33.1405390   7.9057010  56.1869680  32.9234630
   3.9312510  63.2321120  33.9942220   4.2728210  63.9763350  33.4985540
   3.1025220  63.5452240  34.3567050   5.0729120  64.1869450  46.5135300
   5.0873660  63.2550410  46.2954210   4.3654220  64.2729210  47.1525070
  10.2066190  58.3709270  32.7833910  10.1229910  58.8023490  31.9330350
  10.9260380  58.8307620  33.2160730  11.2840330  60.8276790  45.8603880
  10.5588520  61.4205570  45.6633270  11.8115790  60.8200330  45.0617250
  11.2353440  65.2251530  35.5116040  10.5929600  64.5707150  35.7859760
  10.8484100  65.6306620  34.7356710   6.8139920  62.5536960  39.3587730
   7.1663740  61.9565090  38.6989100   5.9302250  62.2281190  39.5295980
   2.9003200  63.3134650  36.7658140   3.5874330  63.8603860  37.1465730
   2.1135620  63.8575380  36.8007750   2.2030410  60.3180680  36.3783500
   2.6593190  61.1285930  36.6043690   1.8518620  60.0003820  37.2101990
   4.5063020  65.8287020  43.6075800   5.1505240  66.0346400  44.2849220
   4.8692460  65.0675420  43.1546650   5.7795100  63.8319370  42.3253250
   6.4217330  63.1312530  42.4385420   6.3044450  64.6117810  42.1450140
   9.6250820  64.1167990  32.0492390   9.3988400  63.3998430  32.6417030
   9.2347020  63.8680430  31.2114140   7.5532720  64.6314270  45.5289310
   7.8888960  65.2180960  46.2067230   6.6333060  64.5006980  45.7587100
   9.2067070  62.0339930  33.7106550   8.9188770  62.4952620  34.4984430
  10.0019240  61.5737700  33.9790770   3.3821300  64.6805600  48.6977370
   3.0618170  63.9614840  49.2423060   2.7079660  65.3560670  48.7713430
   6.5974900  54.9131760  44.0614170   6.9655720  54.0926970  44.3893740
   5.7373100  54.9733650  44.4769820   9.9636930  53.8688700  34.8701730
   9.3350090  53.9734370  34.1559960   9.4688850  54.0885480  35.6595610
   4.4095070  65.5894290  32.3035710   4.5107050  65.3858280  31.3737690
   3.5096810  65.3352570  32.5083490   3.5576890  57.5671350  44.2852140
   4.0562140  58.0417170  44.9503990   3.6999840  56.6434870  44.4922170
   5.9636390  52.8725310  37.7255400   5.8404170  52.8911440  36.7764910
   6.9120950  52.9204250  37.8453800   3.0513180  68.1080610  36.9983380
   3.3054680  68.0702000  36.0762750   2.1025660  67.9813940  36.9911630
  10.7643750  53.7839310  45.1280530  10.2617350  54.5244710  45.4674340
  11.5800410  54.1723310  44.8117320   9.0565760  59.0272490  38.5741890
   8.1155900  59.0422720  38.7489580   9.3709830  58.2408450  39.0202190
  11.0591340  66.1981340  40.2496150  11.1838760  67.0212510  40.7219960
  11.9256900  65.9872070  39.9020300   6.3731780  63.5838490  49.0574270
   5.7669940  63.6070090  48.3170020   6.0685890  62.8521530  49.5941520
   7.8032150  67.3118780  47.6683680   8.7553900  67.2276800  47.6183920
   7.6560370  67.9760490  48.3417470  10.6941350  66.6912990  33.1675590
  10.4082860  66.2778130  32.3529770  10.4960900  67.6200700  33.0476110
   2.1588580  62.6846270  31.6081200   2.0539220  62.0698620  32.3342580
   1.9912800  62.1612160  30.8244210   2.3102900  61.3703070  47.5870430
   1.5448570  61.9388070  47.5025100   2.4918860  61.0779280  46.6938660
   5.3991310  61.7466300  32.2123190   4.8501410  62.1935600  32.8565930
   6.0210570  61.2415550  32.7360860   9.4526250  63.1008400  48.1445450
  10.1935720  63.4384160  47.6412910   8.6898930  63.2700460  47.5915220
   3.5794070  59.7294830  31.3565590   4.0999730  59.0143850  30.9906740
   4.2262470  60.3680700  31.6566100   8.1271910  61.1523230  46.6800660
   8.5412930  61.3068310  47.5291080   7.1922910  61.2778450  46.8426440
   8.5994080  58.4919390  48.6839810   9.1814850  57.7371710  48.5960290
   8.7755850  59.0226830  47.9071290   2.4827590  52.2089380  44.0284150
   2.0344890  52.2313640  43.1829700   1.8492790  51.8108400  44.6254450
   2.8887140  61.1043710  44.6496590   3.3075250  61.9476440  44.4772830
   1.9695770  61.2415750  44.4203370   5.2251040  58.8359890  46.0334430
   5.3447250  58.2401030  46.7729270   6.0845040  58.8729580  45.6135730
   7.5638940  59.3897080  44.6096940   7.0374160  59.9139700  44.0062080
   7.9070280  60.0224470  45.2406670   6.8113240  54.9947050  47.5243270
   6.1228760  54.3328590  47.4593260   7.5319260  54.5485320  47.9691730
   7.4413640  51.5898680  33.5833530   7.7215930  50.7466580  33.9392950
   6.6679370  51.8221790  34.0972280   3.5956770  68.6447930  46.0240970
   3.5215470  69.5483070  46.3313340   2.6935610  68.3259830  45.9963040
   1.9793060  52.8225690  32.0280730   1.6315060  52.1449680  31.4483180
   2.1805830  52.3615200  32.8424120   4.1442100  67.8106440  33.6467330
   5.0392890  68.1491410  33.6686090   4.1759730  67.0885850  33.0191610
  11.1236450  66.3410110  46.3533530  10.5238440  66.4002670  45.6097450
  11.2530350  65.4015090  46.4830380  12.3637900  64.0827930  31.6903240
  11.5330860  64.1504580  32.1610470  12.5409730  64.9732050  31.3870100
  11.8194360  60.8275410  34.1937440  12.5813270  61.3972060  34.2997130
  11.8348730  60.2602610  34.9645750   9.8088090  63.0662090  44.4509690
   8.9947930  63.4959250  44.7135480  10.2162290  63.6780500  43.8378740
  11.8713530  61.1209780  31.3509960  12.1462370  62.0288660  31.2229180
  11.6824270  61.0572310  32.2871950   8.2689140  54.1454630  32.6463590
   8.6874020  53.9585610  31.8060250   7.9625200  53.2933680  32.9566520
  11.7678870  59.0578770  36.3439390  11.3922470  58.2906700  35.9120680
  11.0381990  59.4401470  36.8314320  11.1578490  58.2050290  45.9778910
  10.9264580  57.9763040  45.0776860  11.4183040  59.1249840  45.9323800
   9.5966560  53.4306720  48.7558610  10.4736740  53.4390120  49.1392610
   9.6087400  52.6937560  48.1450960  11.0429830  57.2836260  39.6446630
  11.5667310  56.7898910  39.0136800  11.6289250  57.4186620  40.3894200
  11.2219550  57.3676130  43.1666180  10.2722260  57.3339670  43.2811170
  11.4032560  58.2776240  42.9315950  10.5329800  56.5409610  35.5839040
  11.0288920  56.3080480  36.3687920  10.3345870  55.7021450  35.1676680
  10.3082680  51.1164690  44.5759720  10.9454900  51.7298830  44.9418910
  10.4557570  51.1525350  43.6308950  12.8507230  53.0078480  31.3582860
  13.7756540  52.8759660  31.1501150  12.8283020  53.0871300  32.3119310
  12.9245720  53.7789140  33.9839570  12.1297220  53.7134260  34.5132480
  13.1289000  54.7139780  33.9724920   9.8664140  67.8180690  37.9777960
  10.4623210  67.4965260  37.3012380  10.1242290  67.3452510  38.7691230
   3.6787160  52.2690880  47.4834820   3.6176050  52.8612710  48.2330230
   4.6187540  52.1616840  47.3385080   6.3161720  51.9260940  47.1227110
   6.9302130  52.2440230  46.4608190   6.8611280  51.4409530  47.7422970
  12.7336900  67.8252570  44.5288950  12.2395180  68.2221440  43.8116080
  12.1250190  67.2001780  44.9226230   7.0569760  50.4893080  43.4496400
   6.1829600  50.8228190  43.2469330   6.9480510  50.0166260  44.2748270
   7.9641740  52.6963950  44.8338120   7.6355100  51.8815710  44.4539850
   8.9124040  52.6533760  44.7103810  10.4176350  68.4675990  41.8075690
   9.9579320  69.2191800  41.4333710   9.7888810  67.7482460  41.7490490
   3.5867570  67.6672720  41.8092800   3.8745380  67.4127020  40.9325810
   4.0990790  67.1150080  42.3998370   4.8044580  51.4062920  42.3889310
   4.0216370  51.8808420  42.6686070   4.5107510  50.5017750  42.2802490
   9.3565650  52.1086020  40.4338400   9.7973740  52.0531120  39.5860000
   9.0873240  53.0244030  40.5048580  11.2204220  51.7401260  38.4447220
  11.1592620  50.7962480  38.2978240  11.9996250  51.8481350  38.9900680
   2.6898800  53.8249670  37.9005340   1.8773310  53.4506560  37.5601220
   3.1940440  53.0694750  38.2026530   7.1923780  50.4892120  39.1388410
   7.7953150  51.0612330  39.6136930   6.4516770  51.0531560  38.9162310
  10.3358380  50.8913680  34.4128690  10.5309010  51.7897130  34.6796120
   9.5488250  50.6600760  34.9061640   3.6539930  68.5888820  49.1761000
   4.5807240  68.3533090  49.2196960   3.6390360  69.4160820  48.6947030
  11.8884990  68.1314390  36.1735250  12.0637180  67.4452130  35.5296170
  11.1906560  68.6561440  35.7811920   7.4419000  50.6687150  49.5183350
   7.3284450  50.9881760  50.4134870   8.2588740  51.0699660  49.2220630
  10.2217490  67.8158680  49.0002040  11.0142810  67.3207910  48.7928000
  10.5150640  68.4948820  49.6077650   6.3477150  58.6879620  19.8818090
   6.2671200  57.7734230  19.6109800   5.9341570  59.1846690  19.1757800
   4.4795190  60.4658640  21.7627360   3.7037290  59.9859080  22.0525930
   5.1308120  59.7864290  21.5883520   8.5002620  64.8718830  20.5426490
   8.0384150  64.1006070  20.8713660   9.3128170  64.8984900  21.0478940
   4.7265930  67.1576840  20.1630480   4.1077370  67.6134340  19.5924920
   5.5817710  67.3128300  19.7620180   3.9204180  63.1415830  21.7697520
   3.8512460  62.2005770  21.6086650   4.6824040  63.2317240  22.3420090
   4.9509350  55.9486210  21.9966450   5.3274170  55.0758090  21.8840120
   4.8528860  56.2844910  21.1056890   8.7333470  53.4436650  18.9294790
   9.5543090  52.9533220  18.9720270   8.7667550  54.0334310  19.6826630
  13.0233020  55.4603400  25.4938420  12.3185190  55.8485110  24.9753530
  13.2890940  56.1553690  26.0959350   5.5929280  62.0416080  17.5562390
   4.9746550  62.5065530  16.9925110   6.1052530  62.7343560  17.9731900
   8.9694950  55.3837030  21.7022330   8.2650520  55.6721920  22.2825440
   9.3307110  56.1937140  21.3421890  10.5857730  65.0012160  23.9649810
   9.9021250  65.6711270  23.9566480  11.1252020  65.1992810  23.1994670
  12.0381870  54.8291820  22.0931540  11.0906780  54.8630800  22.2246970
  12.3631860  55.6430770  22.4780900   2.5701410  51.1289000  20.3887530
   2.8776390  50.5735890  19.6723030   1.6402110  51.2633460  20.2060520
   8.1216470  66.8456290  22.6794990   8.1343630  66.4418580  21.8117250
   7.5691690  67.6203580  22.5756420   9.4161890  63.5672510  17.7685160
   9.3058220  62.6246840  17.8934580   9.4130140  63.9288150  18.6547920
   7.5201910  61.7486130  24.0077600   7.9370700  61.5346240  23.1731060
   8.2441730  62.0058920  24.5786220   4.9582170  59.1937830  17.1247650
   4.0311450  59.1275210  17.3536120   5.1106990  60.1317960  17.0102890
   4.9451250  55.4654830  14.1214810   4.0054920  55.6268790  14.2067270
   5.2634510  56.1840510  13.5750800  11.4664010  60.1473350  24.0993840
  10.6382640  60.2166440  23.6243970  12.0614490  60.7327660  23.6309670
   8.9879460  60.7558130  17.6282900   8.3691880  60.4177680  16.9809200
   8.9703910  60.1117890  18.3362090   8.4306020  56.9342670  25.0448710
   8.0177200  57.7596380  25.2988700   7.6981970  56.3487710  24.8525070
   9.1206120  66.9802000  25.7329690   8.6436680  67.7874190  25.5402300
   8.4367910  66.3280330  25.8855900   7.1644160  59.9944940  14.6355650
   7.6037440  59.1567370  14.4893470   7.8772580  60.6274340  14.7219790
   5.2739540  64.9341010  18.6036890   5.7135450  65.6765340  18.1892280
   5.2126430  65.1767580  19.5275850  10.7461300  51.2487750  12.9496690
  10.4333960  51.3414580  13.8495760  11.5073770  51.8268780  12.8994120
  12.7005330  66.7413940  30.8021080  13.1765050  67.2196830  31.4810160
  13.3212490  66.6731430  30.0766580  12.1038580  63.9326790  27.9621090
  12.2301640  63.6938670  27.0438270  12.1459960  63.1011330  28.4343170
   5.9655320  67.6354790  26.5315900   6.4799990  67.5462800  27.3338330
   5.1224400  67.9814490  26.8243810   7.9409720  67.9210130  15.9599900
   7.7810860  67.6313070  16.8581730   7.7756430  67.1450260  15.4245130
   7.6435850  65.4297690  14.5197900   6.9501010  65.4274980  13.8600180
   8.3858710  65.0057010  14.0892070   7.2085780  67.0560400  18.5946390
   7.6642730  66.2749780  18.9085010   7.5478300  67.7667220  19.1387570
  11.9562590  55.9859250  28.9270830  11.3406860  56.4938920  28.3986290
  11.6359010  55.0857580  28.8696770   4.0176910  54.8251140  26.3933020
   3.5556280  55.0334160  27.2052960   3.6155020  54.0110490  26.0903690
   9.0181420  56.0460090  27.5229680   8.1675010  55.7465840  27.8438750
   8.8583210  56.2902100  26.6113500   6.1131130  57.5461840  29.6228470
   6.4384540  56.7125590  29.2830700   6.9011460  58.0690360  29.7706800
   2.8465920  51.5793320  15.6703530   2.2220100  51.5753190  16.3956840
   2.7596040  50.7124280  15.2739500   1.7683000  52.5029950  22.6487300
   2.0655330  53.4092780  22.5679320   2.3168560  52.0148730  22.0346870
   6.7519080  57.0879560  17.1169600   6.1527970  57.8115360  16.9333220
   7.2998690  57.0256340  16.3346050   1.9620530  57.9801770  29.1839220
   1.8664130  57.0396500  29.0339620   2.8052510  58.2016840  28.7887290
   5.3583950  55.7243100  19.1472880   5.7513520  56.0415300  18.3341570
   5.7200800  54.8454980  19.2617400   3.6676120  54.4750410  30.4069740
   2.9774440  54.2822610  31.0415830   4.4108420  54.7585050  30.9394040
   5.9439090  58.3148850  23.2423660   5.2120210  58.8235660  23.5913760
   5.5463430  57.4978830  22.9412440   2.3816480  54.9903050  21.6476150
   2.3852540  54.5493000  20.7980690   3.2767600  55.3120380  21.7547970
   2.4436630  55.9915130  14.6382910   2.5649450  55.9501610  15.5868730
   2.0585140  56.8539280  14.4829640   6.4065000  53.7682530  22.6546600
   6.4237740  54.2191180  23.4988450   6.1580580  52.8688170  22.8680040
   9.8335750  51.1814710  28.4932980  10.1581520  50.4504370  29.0190960
   9.8692260  50.8628350  27.5913970   2.6824450  59.0504830  23.3941560
   3.0494580  58.5763400  24.1402900   2.4929510  59.9246400  23.7349900
   9.7593590  61.2939820  22.1019010  10.4792710  61.7895110  21.7115120
   9.5575410  60.6157710  21.4572880   5.2203530  52.6877780  16.2448400
   4.4068140  52.1890950  16.1693710   5.0265480  53.5276030  15.8284750
   5.1412390  61.3648880  27.9888010   5.0749700  60.4444550  27.7345600
   4.5117530  61.4624320  28.7032650   7.9351920  57.0597430  14.5410560
   8.8231540  57.3714660  14.3661900   7.9057010  56.1869680  14.1491140
   3.9312510  63.2321120  15.2198730   4.2728210  63.9763350  14.7242050
   3.1025220  63.5452240  15.5823560   5.0729120  64.1869450  27.7391810
   5.0873660  63.2550410  27.5210720   4.3654220  64.2729210  28.3781580
  10.2066190  58.3709270  14.0090420  10.1229910  58.8023490  13.1586860
  10.9260380  58.8307620  14.4417240  11.2840330  60.8276790  27.0860390
  10.5588520  61.4205570  26.8889780  11.8115790  60.8200330  26.2873760
  11.2353440  65.2251530  16.7372550  10.5929600  64.5707150  17.0116270
  10.8484100  65.6306620  15.9613220   6.8139920  62.5536960  20.5844240
   7.1663740  61.9565090  19.9245610   5.9302250  62.2281190  20.7552490
   2.9003200  63.3134650  17.9914650   3.5874330  63.8603860  18.3722240
   2.1135620  63.8575380  18.0264260   2.2030410  60.3180680  17.6040010
   2.6593190  61.1285930  17.8300200   1.8518620  60.0003820  18.4358500
   4.5063020  65.8287020  24.8332310   5.1505240  66.0346400  25.5105730
   4.8692460  65.0675420  24.3803160   5.7795100  63.8319370  23.5509760
   6.4217330  63.1312530  23.6641930   6.3044450  64.6117810  23.3706650
   9.6250820  64.1167990  13.2748900   9.3988400  63.3998430  13.8673540
   9.2347020  63.8680430  12.4370650   7.5532720  64.6314270  26.7545820
   7.8888960  65.2180960  27.4323740   6.6333060  64.5006980  26.9843610
   9.2067070  62.0339930  14.9363060   8.9188770  62.4952620  15.7240940
  10.0019240  61.5737700  15.2047280   3.3821300  64.6805600  29.9233880
   3.0618170  63.9614840  30.4679570   2.7079660  65.3560670  29.9969940
   6.5974900  54.9131760  25.2870680   6.9655720  54.0926970  25.6150250
   5.7373100  54.9733650  25.7026330   9.9636930  53.8688700  16.0958240
   9.3350090  53.9734370  15.3816470   9.4688850  54.0885480  16.8852120
   4.4095070  65.5894290  13.5292220   4.5107050  65.3858280  12.5994200
   3.5096810  65.3352570  13.7340000   3.5576890  57.5671350  25.5108650
   4.0562140  58.0417170  26.1760500   3.6999840  56.6434870  25.7178680
   5.9636390  52.8725310  18.9511910   5.8404170  52.8911440  18.0021420
   6.9120950  52.9204250  19.0710310   3.0513180  68.1080610  18.2239890
   3.3054680  68.0702000  17.3019260   2.1025660  67.9813940  18.2168140
  10.7643750  53.7839310  26.3537040  10.2617350  54.5244710  26.6930850
  11.5800410  54.1723310  26.0373830   9.0565760  59.0272490  19.7998400
   8.1155900  59.0422720  19.9746090   9.3709830  58.2408450  20.2458700
  11.0591340  66.1981340  21.4752660  11.1838760  67.0212510  21.9476470
  11.9256900  65.9872070  21.1276810   6.3731780  63.5838490  30.2830780
   5.7669940  63.6070090  29.5426530   6.0685890  62.8521530  30.8198030
   7.8032150  67.3118780  28.8940190   8.7553900  67.2276800  28.8440430
   7.6560370  67.9760490  29.5673980  10.6941350  66.6912990  14.3932100
  10.4082860  66.2778130  13.5786280  10.4960900  67.6200700  14.2732620
   2.1588580  62.6846270  12.8337710   2.0539220  62.0698620  13.5599090
   1.9912800  62.1612160  12.0500720   2.3102900  61.3703070  28.8126940
   1.5448570  61.9388070  28.7281610   2.4918860  61.0779280  27.9195170
   5.3991310  61.7466300  13.4379700   4.8501410  62.1935600  14.0822440
   6.0210570  61.2415550  13.9617370   9.4526250  63.1008400  29.3701960
  10.1935720  63.4384160  28.8669420   8.6898930  63.2700460  28.8171730
   3.5794070  59.7294830  12.5822100   4.0999730  59.0143850  12.2163250
   4.2262470  60.3680700  12.8822610   8.1271910  61.1523230  27.9057170
   8.5412930  61.3068310  28.7547590   7.1922910  61.2778450  28.0682950
   8.5994080  58.4919390  29.9096320   9.1814850  57.7371710  29.8216800
   8.7755850  59.0226830  29.1327800   2.4827590  52.2089380  25.2540660
   2.0344890  52.2313640  24.4086210   1.8492790  51.8108400  25.8510960
   2.8887140  61.1043710  25.8753100   3.3075250  61.9476440  25.7029340
   1.9695770  61.2415750  25.6459880   5.2251040  58.8359890  27.2590940
   5.3447250  58.2401030  27.9985780   6.0845040  58.8729580  26.8392240
   7.5638940  59.3897080  25.8353450   7.0374160  59.9139700  25.2318590
   7.9070280  60.0224470  26.4663180   6.8113240  54.9947050  28.7499780
   6.1228760  54.3328590  28.6849770   7.5319260  54.5485320  29.1948240
   7.4413640  51.5898680  14.8090040   7.7215930  50.7466580  15.1649460
   6.6679370  51.8221790  15.3228790   3.5956770  68.6447930  27.2497480
   3.5215470  69.5483070  27.5569850   2.6935610  68.3259830  27.2219550
   1.9793060  52.8225690  13.2537240   1.6315060  52.1449680  12.6739690
   2.1805830  52.3615200  14.0680630   4.1442100  67.8106440  14.8723840
   5.0392890  68.1491410  14.8942600   4.1759730  67.0885850  14.2448120
  11.1236450  66.3410110  27.5790040  10.5238440  66.4002670  26.8353960
  11.2530350  65.4015090  27.7086890  12.3637900  64.0827930  12.9159750
  11.5330860  64.1504580  13.3866980  12.5409730  64.9732050  12.6126610
  11.8194360  60.8275410  15.4193950  12.5813270  61.3972060  15.5253640
  11.8348730  60.2602610  16.1902260  12.8254330  61.6825510  20.2635880
  13.1963160  60.8992830  19.8571850  13.4656260  62.3714610  20.0853180
   9.8088090  63.0662090  25.6766200   8.9947930  63.4959250  25.9391990
  10.2162290  63.6780500  25.0635250  11.8713530  61.1209780  12.5766470
  12.1462370  62.0288660  12.4485690  11.6824270  61.0572310  13.5128460
   8.2689140  54.1454630  13.8720100   8.6874020  53.9585610  13.0316760
   7.9625200  53.2933680  14.1823030  11.7678870  59.0578770  17.5695900
  11.3922470  58.2906700  17.1377190  11.0381990  59.4401470  18.0570830
  11.1578490  58.2050290  27.2035420  10.9264580  57.9763040  26.3033370
  11.4183040  59.1249840  27.1580310   9.5966560  53.4306720  29.9815120
  10.4736740  53.4390120  30.3649120   9.6087400  52.6937560  29.3707470
  11.0429830  57.2836260  20.8703140  11.5667310  56.7898910  20.2393310
  11.6289250  57.4186620  21.6150710  11.2219550  57.3676130  24.3922690
  10.2722260  57.3339670  24.5067680  11.4032560  58.2776240  24.1572460
  10.5329800  56.5409610  16.8095550  11.0288920  56.3080480  17.5944430
  10.3345870  55.7021450  16.3933190  11.9616960  55.1770560  19.3433230
  11.8516240  55.0226600  20.2815500  12.7224550  54.6491500  19.1008640
  10.3082680  51.1164690  25.8016230  10.9454900  51.7298830  26.1675420
  10.4557570  51.1525350  24.8565460  12.8507230  53.0078480  12.5839370
  13.7756540  52.8759660  12.3757660  12.8283020  53.0871300  13.5375820
  12.9245720  53.7789140  15.2096080  12.1297220  53.7134260  15.7388990
  13.1289000  54.7139780  15.1981430   9.8664140  67.8180690  19.2034470
  10.4623210  67.4965260  18.5268890  10.1242290  67.3452510  19.9947740
   3.6787160  52.2690880  28.7091330   3.6176050  52.8612710  29.4586740
   4.6187540  52.1616840  28.5641590   6.3161720  51.9260940  28.3483620
   6.9302130  52.2440230  27.6864700   6.8611280  51.4409530  28.9679480
  12.7336900  67.8252570  25.7545460  12.2395180  68.2221440  25.0372590
  12.1250190  67.2001780  26.1482740   7.0569760  50.4893080  24.6752910
   6.1829600  50.8228190  24.4725840   6.9480510  50.0166260  25.5004780
   7.9641740  52.6963950  26.0594630   7.6355100  51.8815710  25.6796360
   8.9124040  52.6533760  25.9360320  10.4176350  68.4675990  23.0332200
   9.9579320  69.2191800  22.6590220   9.7888810  67.7482460  22.9747000
   3.5867570  67.6672720  23.0349310   3.8745380  67.4127020  22.1582320
   4.0990790  67.1150080  23.6254880   4.8044580  51.4062920  23.6145820
   4.0216370  51.8808420  23.8942580   4.5107510  50.5017750  23.5059000
   9.3565650  52.1086020  21.6594910   9.7973740  52.0531120  20.8116510
   9.0873240  53.0244030  21.7305090  11.2204220  51.7401260  19.6703730
  11.1592620  50.7962480  19.5234750  11.9996250  51.8481350  20.2157190
   2.6898800  53.8249670  19.1261850   1.8773310  53.4506560  18.7857730
   3.1940440  53.0694750  19.4283040   7.1923780  50.4892120  20.3644920
   7.7953150  51.0612330  20.8393440   6.4516770  51.0531560  20.1418820
  10.3358380  50.8913680  15.6385200  10.5309010  51.7897130  15.9052630
   9.5488250  50.6600760  16.1318150   3.6539930  68.5888820  30.4017510
   4.5807240  68.3533090  30.4453470   3.6390360  69.4160820  29.9203540
  11.8884990  68.1314390  17.3991760  12.0637180  67.4452130  16.7552680
  11.1906560  68.6561440  17.0068430   7.4419000  50.6687150  30.7439860
   7.3284450  50.9881760  31.6391380   8.2588740  51.0699660  30.4477140
  10.2217490  67.8158680  30.2258550  11.0142810  67.3207910  30.0184510
  10.5150640  68.4948820  30.8334160   4.4795190  60.4658640   2.9883870
   3.7037290  59.9859080   3.2782440   5.1308120  59.7864290   2.8140030
   8.5002620  64.8718830   1.7683000   8.0384150  64.1006070   2.0970170
   9.3128170  64.8984900   2.2735450   3.9204180  63.1415830   2.9954030
   3.8512460  62.2005770   2.8343160   4.6824040  63.2317240   3.5676600
   4.9509350  55.9486210   3.2222960   5.3274170  55.0758090   3.1096630
   4.8528860  56.2844910   2.3313400  13.0233020  55.4603400   6.7194930
  12.3185190  55.8485110   6.2010040  13.2890940  56.1553690   7.3215860
   8.9694950  55.3837030   2.9278840   8.2650520  55.6721920   3.5081950
   9.3307110  56.1937140   2.5678400  10.5857730  65.0012160   5.1906320
   9.9021250  65.6711270   5.1822990  11.1252020  65.1992810   4.4251180
  12.0381870  54.8291820   3.3188050  11.0906780  54.8630800   3.4503480
  12.3631860  55.6430770   3.7037410   8.1216470  66.8456290   3.9051500
   8.1343630  66.4418580   3.0373760   7.5691690  67.6203580   3.8012930
   7.5201910  61.7486130   5.2334110   7.9370700  61.5346240   4.3987570
   8.2441730  62.0058920   5.8042730  11.4664010  60.1473350   5.3250350
  10.6382640  60.2166440   4.8500480  12.0614490  60.7327660   4.8566180
   8.4306020  56.9342670   6.2705220   8.0177200  57.7596380   6.5245210
   7.6981970  56.3487710   6.0781580   9.1206120  66.9802000   6.9586200
   8.6436680  67.7874190   6.7658810   8.4367910  66.3280330   7.1112410
  12.7005330  66.7413940  12.0277590  13.1765050  67.2196830  12.7066670
  13.3212490  66.6731430  11.3023090  12.1038580  63.9326790   9.1877600
  12.2301640  63.6938670   8.2694780  12.1459960  63.1011330   9.6599680
   5.9655320  67.6354790   7.7572410   6.4799990  67.5462800   8.5594840
   5.1224400  67.9814490   8.0500320  11.9562590  55.9859250  10.1527340
  11.3406860  56.4938920   9.6242800  11.6359010  55.0857580  10.0953280
   4.0176910  54.8251140   7.6189530   3.5556280  55.0334160   8.4309470
   3.6155020  54.0110490   7.3160200   9.0181420  56.0460090   8.7486190
   8.1675010  55.7465840   9.0695260   8.8583210  56.2902100   7.8370010
   6.1131130  57.5461840  10.8484980   6.4384540  56.7125590  10.5087210
   6.9011460  58.0690360  10.9963310   1.7683000  52.5029950   3.8743810
   2.0655330  53.4092780   3.7935830   2.3168560  52.0148730   3.2603380
   1.9620530  57.9801770  10.4095730   1.8664130  57.0396500  10.2596130
   2.8052510  58.2016840  10.0143800   3.6676120  54.4750410  11.6326250
   2.9774440  54.2822610  12.2672340   4.4108420  54.7585050  12.1650550
   5.9439090  58.3148850   4.4680170   5.2120210  58.8235660   4.8170270
   5.5463430  57.4978830   4.1668950   2.3816480  54.9903050   2.8732660
   2.3852540  54.5493000   2.0237200   3.2767600  55.3120380   2.9804480
   6.4065000  53.7682530   3.8803110   6.4237740  54.2191180   4.7244960
   6.1580580  52.8688170   4.0936550   9.8335750  51.1814710   9.7189490
  10.1581520  50.4504370  10.2447470   9.8692260  50.8628350   8.8170480
   2.6824450  59.0504830   4.6198070   3.0494580  58.5763400   5.3659410
   2.4929510  59.9246400   4.9606410   9.7593590  61.2939820   3.3275520
  10.4792710  61.7895110   2.9371630   9.5575410  60.6157710   2.6829390
   5.1412390  61.3648880   9.2144520   5.0749700  60.4444550   8.9602110
   4.5117530  61.4624320   9.9289160   5.0729120  64.1869450   8.9648320
   5.0873660  63.2550410   8.7467230   4.3654220  64.2729210   9.6038090
  11.2840330  60.8276790   8.3116900  10.5588520  61.4205570   8.1146290
  11.8115790  60.8200330   7.5130270   4.5063020  65.8287020   6.0588820
   5.1505240  66.0346400   6.7362240   4.8692460  65.0675420   5.6059670
   5.7795100  63.8319370   4.7766270   6.4217330  63.1312530   4.8898440
   6.3044450  64.6117810   4.5963160   7.5532720  64.6314270   7.9802330
   7.8888960  65.2180960   8.6580250   6.6333060  64.5006980   8.2100120
   3.3821300  64.6805600  11.1490390   3.0618170  63.9614840  11.6936080
   2.7079660  65.3560670  11.2226450   6.5974900  54.9131760   6.5127190
   6.9655720  54.0926970   6.8406760   5.7373100  54.9733650   6.9282840
   3.5576890  57.5671350   6.7365160   4.0562140  58.0417170   7.4017010
   3.6999840  56.6434870   6.9435190  10.7643750  53.7839310   7.5793550
  10.2617350  54.5244710   7.9187360  11.5800410  54.1723310   7.2630340
  11.0591340  66.1981340   2.7009170  11.1838760  67.0212510   3.1732980
  11.9256900  65.9872070   2.3533320   6.3731780  63.5838490  11.5087290
   5.7669940  63.6070090  10.7683040   6.0685890  62.8521530  12.0454540
   7.8032150  67.3118780  10.1196700   8.7553900  67.2276800  10.0696940
   7.6560370  67.9760490  10.7930490   2.3102900  61.3703070  10.0383450
   1.5448570  61.9388070   9.9538120   2.4918860  61.0779280   9.1451680
   9.4526250  63.1008400  10.5958470  10.1935720  63.4384160  10.0925930
   8.6898930  63.2700460  10.0428240   8.1271910  61.1523230   9.1313680
   8.5412930  61.3068310   9.9804100   7.1922910  61.2778450   9.2939460
   8.5994080  58.4919390  11.1352830   9.1814850  57.7371710  11.0473310
   8.7755850  59.0226830  10.3584310   2.4827590  52.2089380   6.4797170
   2.0344890  52.2313640   5.6342720   1.8492790  51.8108400   7.0767470
   2.8887140  61.1043710   7.1009610   3.3075250  61.9476440   6.9285850
   1.9695770  61.2415750   6.8716390   5.2251040  58.8359890   8.4847450
   5.3447250  58.2401030   9.2242290   6.0845040  58.8729580   8.0648750
   7.5638940  59.3897080   7.0609960   7.0374160  59.9139700   6.4575100
   7.9070280  60.0224470   7.6919690   6.8113240  54.9947050   9.9756290
   6.1228760  54.3328590   9.9106280   7.5319260  54.5485320  10.4204750
   3.5956770  68.6447930   8.4753990   3.5215470  69.5483070   8.7826360
   2.6935610  68.3259830   8.4476060  11.1236450  66.3410110   8.8046550
  10.5238440  66.4002670   8.0610470  11.2530350  65.4015090   8.9343400
   9.8088090  63.0662090   6.9022710   8.9947930  63.4959250   7.1648500
  10.2162290  63.6780500   6.2891760  11.1578490  58.2050290   8.4291930
  10.9264580  57.9763040   7.5289880  11.4183040  59.1249840   8.3836820
   9.5966560  53.4306720  11.2071630  10.4736740  53.4390120  11.5905630
   9.6087400  52.6937560  10.5963980  11.0429830  57.2836260   2.0959650
  11.5667310  56.7898910   1.4649820  11.6289250  57.4186620   2.8407220
  11.2219550  57.3676130   5.6179200  10.2722260  57.3339670   5.7324190
  11.4032560  58.2776240   5.3828970  10.3082680  51.1164690   7.0272740
  10.9454900  51.7298830   7.3931930  10.4557570  51.1525350   6.0821970
   3.6787160  52.2690880   9.9347840   3.6176050  52.8612710  10.6843250
   4.6187540  52.1616840   9.7898100   6.3161720  51.9260940   9.5740130
   6.9302130  52.2440230   8.9121210   6.8611280  51.4409530  10.1935990
  12.7336900  67.8252570   6.9801970  12.2395180  68.2221440   6.2629100
  12.1250190  67.2001780   7.3739250   7.0569760  50.4893080   5.9009420
   6.1829600  50.8228190   5.6982350   6.9480510  50.0166260   6.7261290
   7.9641740  52.6963950   7.2851140   7.6355100  51.8815710   6.9052870
   8.9124040  52.6533760   7.1616830  10.4176350  68.4675990   4.2588710
   9.9579320  69.2191800   3.8846730   9.7888810  67.7482460   4.2003510
   3.5867570  67.6672720   4.2605820   3.8745380  67.4127020   3.3838830
   4.0990790  67.1150080   4.8511390   4.8044580  51.4062920   4.8402330
   4.0216370  51.8808420   5.1199090   4.5107510  50.5017750   4.7315510
   9.3565650  52.1086020   2.8851420   9.7973740  52.0531120   2.0373020
   9.0873240  53.0244030   2.9561600   3.6539930  68.5888820  11.6274020
   4.5807240  68.3533090  11.6709980   3.6390360  69.4160820  11.1460050
   7.4419000  50.6687150  11.9696370   7.3284450  50.9881760  12.8647890
   8.2588740  51.0699660  11.6733650  10.2217490  67.8158680  11.4515060
  11.0142810  67.3207910  11.2441020  10.5150640  68.4948820  12.0590670
   6.3477150  39.9136130  57.4305070   6.2671200  38.9990740  57.1596780
   5.9341570  40.4103200  56.7244780   4.4795190  41.6915150  59.3114340
   3.7037290  41.2115590  59.6012910   5.1308120  41.0120800  59.1370500
   8.5002620  46.0975340  58.0913470   8.0384150  45.3262580  58.4200640
   9.3128170  46.1241410  58.5965920   4.7265930  48.3833350  57.7117460
   4.1077370  48.8390850  57.1411900   5.5817710  48.5384810  57.3107160
   3.9204180  44.3672340  59.3184500   3.8512460  43.4262280  59.1573630
   4.6824040  44.4573750  59.8907070   4.9509350  37.1742720  59.5453430
   5.3274170  36.3014600  59.4327100   4.8528860  37.5101420  58.6543870
   8.7333470  34.6693160  56.4781770   9.5543090  34.1789730  56.5207250
   8.7667550  35.2590820  57.2313610   5.5929280  43.2672590  55.1049370
   4.9746550  43.7322040  54.5412090   6.1052530  43.9600070  55.5218880
   8.9694950  36.6093540  59.2509310   8.2650520  36.8978430  59.8312420
   9.3307110  37.4193650  58.8908870  12.0381870  36.0548330  59.6418520
  11.0906780  36.0887310  59.7733950  12.3631860  36.8687280  60.0267880
   2.5701410  32.3545510  57.9374510   2.8776390  31.7992400  57.2210010
   1.6402110  32.4889970  57.7547500   8.1216470  48.0712800  60.2281970
   8.1343630  47.6675090  59.3604230   7.5691690  48.8460090  60.1243400
   9.4161890  44.7929020  55.3172140   9.3058220  43.8503350  55.4421560
   9.4130140  45.1544660  56.2034900   4.9582170  40.4194340  54.6734630
   4.0311450  40.3531720  54.9023100   5.1106990  41.3574470  54.5589870
   4.9451250  36.6911340  51.6701790   4.0054920  36.8525300  51.7554250
   5.2634510  37.4097020  51.1237780   8.9879460  41.9814640  55.1769880
   8.3691880  41.6434190  54.5296180   8.9703910  41.3374400  55.8849070
   7.1644160  41.2201450  52.1842630   7.6037440  40.3823880  52.0380450
   7.8772580  41.8530850  52.2706770   5.2739540  46.1597520  56.1523870
   5.7135450  46.9021850  55.7379260   5.2126430  46.4024090  57.0762830
  10.7461300  32.4744260  50.4983670  10.4333960  32.5671090  51.3982740
  11.5073770  33.0525290  50.4481100   7.9409720  49.1466640  53.5086880
   7.7810860  48.8569580  54.4068710   7.7756430  48.3706770  52.9732110
   7.6435850  46.6554200  52.0684880   6.9501010  46.6531490  51.4087160
   8.3858710  46.2313520  51.6379050   7.2085780  48.2816910  56.1433370
   7.6642730  47.5006290  56.4571990   7.5478300  48.9923730  56.6874550
   2.8465920  32.8049830  53.2190510   2.2220100  32.8009700  53.9443820
   2.7596040  31.9380790  52.8226480   1.7683000  33.7286460  60.1974280
   2.0655330  34.6349290  60.1166300   2.3168560  33.2405240  59.5833850
   6.7519080  38.3136070  54.6656580   6.1527970  39.0371870  54.4820200
   7.2998690  38.2512850  53.8833030   5.3583950  36.9499610  56.6959860
   5.7513520  37.2671810  55.8828550   5.7200800  36.0711490  56.8104380
   2.3816480  36.2159560  59.1963130   2.3852540  35.7749510  58.3467670
   3.2767600  36.5376890  59.3034950   2.4436630  37.2171640  52.1869890
   2.5649450  37.1758120  53.1355710   2.0585140  38.0795790  52.0316620
   9.7593590  42.5196330  59.6505990  10.4792710  43.0151620  59.2602100
   9.5575410  41.8414220  59.0059860   5.2203530  33.9134290  53.7935380
   4.4068140  33.4147460  53.7180690   5.0265480  34.7532540  53.3771730
   7.9351920  38.2853940  52.0897540   8.8231540  38.5971170  51.9148880
   7.9057010  37.4126190  51.6978120   3.9312510  44.4577630  52.7685710
   4.2728210  45.2019860  52.2729030   3.1025220  44.7708750  53.1310540
  10.2066190  39.5965780  51.5577400  10.1229910  40.0280000  50.7073840
  10.9260380  40.0564130  51.9904220  11.2353440  46.4508040  54.2859530
  10.5929600  45.7963660  54.5603250  10.8484100  46.8563130  53.5100200
   6.8139920  43.7793470  58.1331220   7.1663740  43.1821600  57.4732590
   5.9302250  43.4537700  58.3039470   2.9003200  44.5391160  55.5401630
   3.5874330  45.0860370  55.9209220   2.1135620  45.0831890  55.5751240
   2.2030410  41.5437190  55.1526990   2.6593190  42.3542440  55.3787180
   1.8518620  41.2260330  55.9845480   9.6250820  45.3424500  50.8235880
   9.3988400  44.6254940  51.4160520   9.2347020  45.0936940  49.9857630
   9.2067070  43.2596440  52.4850040   8.9188770  43.7209130  53.2727920
  10.0019240  42.7994210  52.7534260   9.9636930  35.0945210  53.6445220
   9.3350090  35.1990880  52.9303450   9.4688850  35.3141990  54.4339100
   4.4095070  46.8150800  51.0779200   4.5107050  46.6114790  50.1481180
   3.5096810  46.5609080  51.2826980   5.9636390  34.0981820  56.4998890
   5.8404170  34.1167950  55.5508400   6.9120950  34.1460760  56.6197290
   3.0513180  49.3337120  55.7726870   3.3054680  49.2958510  54.8506240
   2.1025660  49.2070450  55.7655120   9.0565760  40.2529000  57.3485380
   8.1155900  40.2679230  57.5233070   9.3709830  39.4664960  57.7945680
  11.0591340  47.4237850  59.0239640  11.1838760  48.2469020  59.4963450
  11.9256900  47.2128580  58.6763790  10.6941350  47.9169500  51.9419080
  10.4082860  47.5034640  51.1273260  10.4960900  48.8457210  51.8219600
   2.1588580  43.9102780  50.3824690   2.0539220  43.2955130  51.1086070
   1.9912800  43.3868670  49.5987700   5.3991310  42.9722810  50.9866680
   4.8501410  43.4192110  51.6309420   6.0210570  42.4672060  51.5104350
   3.5794070  40.9551340  50.1309080   4.0999730  40.2400360  49.7650230
   4.2262470  41.5937210  50.4309590   7.4413640  32.8155190  52.3577020
   7.7215930  31.9723090  52.7136440   6.6679370  33.0478300  52.8715770
   1.9793060  34.0482200  50.8024220   1.6315060  33.3706190  50.2226670
   2.1805830  33.5871710  51.6167610   4.1442100  49.0362950  52.4210820
   5.0392890  49.3747920  52.4429580   4.1759730  48.3142360  51.7935100
  12.3637900  45.3084440  50.4646730  11.5330860  45.3761090  50.9353960
  12.5409730  46.1988560  50.1613590  11.8194360  42.0531920  52.9680930
  12.5813270  42.6228570  53.0740620  11.8348730  41.4859120  53.7389240
  12.8254330  42.9082020  57.8122860  13.1963160  42.1249340  57.4058830
  13.4656260  43.5971120  57.6340160  11.8713530  42.3466290  50.1253450
  12.1462370  43.2545170  49.9972670  11.6824270  42.2828820  51.0615440
   8.2689140  35.3711140  51.4207080   8.6874020  35.1842120  50.5803740
   7.9625200  34.5190190  51.7310010  11.7678870  40.2835280  55.1182880
  11.3922470  39.5163210  54.6864170  11.0381990  40.6657980  55.6057810
  11.0429830  38.5092770  58.4190120  11.5667310  38.0155420  57.7880290
  11.6289250  38.6443130  59.1637690  10.5329800  37.7666120  54.3582530
  11.0288920  37.5336990  55.1431410  10.3345870  36.9277960  53.9420170
  11.9616960  36.4027070  56.8920210  11.8516240  36.2483110  57.8302480
  12.7224550  35.8748010  56.6495620  12.8507230  34.2334990  50.1326350
  13.7756540  34.1016170  49.9244640  12.8283020  34.3127810  51.0862800
  12.9245720  35.0045650  52.7583060  12.1297220  34.9390770  53.2875970
  13.1289000  35.9396290  52.7468410   9.8664140  49.0437200  56.7521450
  10.4623210  48.7221770  56.0755870  10.1242290  48.5709020  57.5434720
   9.3565650  33.3342530  59.2081890   9.7973740  33.2787630  58.3603490
   9.0873240  34.2500540  59.2792070  11.2204220  32.9657770  57.2190710
  11.1592620  32.0218990  57.0721730  11.9996250  33.0737860  57.7644170
   2.6898800  35.0506180  56.6748830   1.8773310  34.6763070  56.3344710
   3.1940440  34.2951260  56.9770020   7.1923780  31.7148630  57.9131900
   7.7953150  32.2868840  58.3880420   6.4516770  32.2788070  57.6905800
  10.3358380  32.1170190  53.1872180  10.5309010  33.0153640  53.4539610
   9.5488250  31.8857270  53.6805130  11.8884990  49.3570900  54.9478740
  12.0637180  48.6708640  54.3039660  11.1906560  49.8817950  54.5555410
   6.3477150  39.9136130  38.6561580   6.2671200  38.9990740  38.3853290
   5.9341570  40.4103200  37.9501290   4.4795190  41.6915150  40.5370850
   3.7037290  41.2115590  40.8269420   5.1308120  41.0120800  40.3627010
   8.5002620  46.0975340  39.3169980   8.0384150  45.3262580  39.6457150
   9.3128170  46.1241410  39.8222430   4.7265930  48.3833350  38.9373970
   4.1077370  48.8390850  38.3668410   5.5817710  48.5384810  38.5363670
   3.9204180  44.3672340  40.5441010   3.8512460  43.4262280  40.3830140
   4.6824040  44.4573750  41.1163580   4.9509350  37.1742720  40.7709940
   5.3274170  36.3014600  40.6583610   4.8528860  37.5101420  39.8800380
   8.7333470  34.6693160  37.7038280   9.5543090  34.1789730  37.7463760
   8.7667550  35.2590820  38.4570120  13.0233020  36.6859910  44.2681910
  12.3185190  37.0741620  43.7497020  13.2890940  37.3810200  44.8702840
   5.5929280  43.2672590  36.3305880   4.9746550  43.7322040  35.7668600
   6.1052530  43.9600070  36.7475390   8.9694950  36.6093540  40.4765820
   8.2650520  36.8978430  41.0568930   9.3307110  37.4193650  40.1165380
  10.5857730  46.2268670  42.7393300   9.9021250  46.8967780  42.7309970
  11.1252020  46.4249320  41.9738160  12.0381870  36.0548330  40.8675030
  11.0906780  36.0887310  40.9990460  12.3631860  36.8687280  41.2524390
   2.5701410  32.3545510  39.1631020   2.8776390  31.7992400  38.4466520
   1.6402110  32.4889970  38.9804010   8.1216470  48.0712800  41.4538480
   8.1343630  47.6675090  40.5860740   7.5691690  48.8460090  41.3499910
   9.4161890  44.7929020  36.5428650   9.3058220  43.8503350  36.6678070
   9.4130140  45.1544660  37.4291410   7.5201910  42.9742640  42.7821090
   7.9370700  42.7602750  41.9474550   8.2441730  43.2315430  43.3529710
   4.9582170  40.4194340  35.8991140   4.0311450  40.3531720  36.1279610
   5.1106990  41.3574470  35.7846380   4.9451250  36.6911340  32.8958300
   4.0054920  36.8525300  32.9810760   5.2634510  37.4097020  32.3494290
  11.4664010  41.3729860  42.8737330  10.6382640  41.4422950  42.3987460
  12.0614490  41.9584170  42.4053160   8.9879460  41.9814640  36.4026390
   8.3691880  41.6434190  35.7552690   8.9703910  41.3374400  37.1105580
   8.4306020  38.1599180  43.8192200   8.0177200  38.9852890  44.0732190
   7.6981970  37.5744220  43.6268560   9.1206120  48.2058510  44.5073180
   8.6436680  49.0130700  44.3145790   8.4367910  47.5536840  44.6599390
   7.1644160  41.2201450  33.4099140   7.6037440  40.3823880  33.2636960
   7.8772580  41.8530850  33.4963280   5.2739540  46.1597520  37.3780380
   5.7135450  46.9021850  36.9635770   5.2126430  46.4024090  38.3019340
  10.7461300  32.4744260  31.7240180  10.4333960  32.5671090  32.6239250
  11.5073770  33.0525290  31.6737610  12.7005330  47.9670450  49.5764570
  13.1765050  48.4453340  50.2553650  13.3212490  47.8987940  48.8510070
  12.1038580  45.1583300  46.7364580  12.2301640  44.9195180  45.8181760
  12.1459960  44.3267840  47.2086660   5.9655320  48.8611300  45.3059390
   6.4799990  48.7719310  46.1081820   5.1224400  49.2071000  45.5987300
   7.9409720  49.1466640  34.7343390   7.7810860  48.8569580  35.6325220
   7.7756430  48.3706770  34.1988620   7.6435850  46.6554200  33.2941390
   6.9501010  46.6531490  32.6343670   8.3858710  46.2313520  32.8635560
   7.2085780  48.2816910  37.3689880   7.6642730  47.5006290  37.6828500
   7.5478300  48.9923730  37.9131060  11.9562590  37.2115760  47.7014320
  11.3406860  37.7195430  47.1729780  11.6359010  36.3114090  47.6440260
   4.0176910  36.0507650  45.1676510   3.5556280  36.2590670  45.9796450
   3.6155020  35.2367000  44.8647180   9.0181420  37.2716600  46.2973170
   8.1675010  36.9722350  46.6182240   8.8583210  37.5158610  45.3856990
   6.1131130  38.7718350  48.3971960   6.4384540  37.9382100  48.0574190
   6.9011460  39.2946870  48.5450290   2.8465920  32.8049830  34.4447020
   2.2220100  32.8009700  35.1700330   2.7596040  31.9380790  34.0482990
   1.7683000  33.7286460  41.4230790   2.0655330  34.6349290  41.3422810
   2.3168560  33.2405240  40.8090360   6.7519080  38.3136070  35.8913090
   6.1527970  39.0371870  35.7076710   7.2998690  38.2512850  35.1089540
   1.9620530  39.2058280  47.9582710   1.8664130  38.2653010  47.8083110
   2.8052510  39.4273350  47.5630780   5.3583950  36.9499610  37.9216370
   5.7513520  37.2671810  37.1085060   5.7200800  36.0711490  38.0360890
   3.6676120  35.7006920  49.1813230   2.9774440  35.5079120  49.8159320
   4.4108420  35.9841560  49.7137530   5.9439090  39.5405360  42.0167150
   5.2120210  40.0492170  42.3657250   5.5463430  38.7235340  41.7155930
   2.3816480  36.2159560  40.4219640   2.3852540  35.7749510  39.5724180
   3.2767600  36.5376890  40.5291460   2.4436630  37.2171640  33.4126400
   2.5649450  37.1758120  34.3612220   2.0585140  38.0795790  33.2573130
   6.4065000  34.9939040  41.4290090   6.4237740  35.4447690  42.2731940
   6.1580580  34.0944680  41.6423530   9.8335750  32.4071220  47.2676470
  10.1581520  31.6760880  47.7934450   9.8692260  32.0884860  46.3657460
   2.6824450  40.2761340  42.1685050   3.0494580  39.8019910  42.9146390
   2.4929510  41.1502910  42.5093390   9.7593590  42.5196330  40.8762500
  10.4792710  43.0151620  40.4858610   9.5575410  41.8414220  40.2316370
   5.2203530  33.9134290  35.0191890   4.4068140  33.4147460  34.9437200
   5.0265480  34.7532540  34.6028240   5.1412390  42.5905390  46.7631500
   5.0749700  41.6701060  46.5089090   4.5117530  42.6880830  47.4776140
   7.9351920  38.2853940  33.3154050   8.8231540  38.5971170  33.1405390
   7.9057010  37.4126190  32.9234630   3.9312510  44.4577630  33.9942220
   4.2728210  45.2019860  33.4985540   3.1025220  44.7708750  34.3567050
   5.0729120  45.4125960  46.5135300   5.0873660  44.4806920  46.2954210
   4.3654220  45.4985720  47.1525070  10.2066190  39.5965780  32.7833910
  10.1229910  40.0280000  31.9330350  10.9260380  40.0564130  33.2160730
  11.2840330  42.0533300  45.8603880  10.5588520  42.6462080  45.6633270
  11.8115790  42.0456840  45.0617250  11.2353440  46.4508040  35.5116040
  10.5929600  45.7963660  35.7859760  10.8484100  46.8563130  34.7356710
   6.8139920  43.7793470  39.3587730   7.1663740  43.1821600  38.6989100
   5.9302250  43.4537700  39.5295980   2.9003200  44.5391160  36.7658140
   3.5874330  45.0860370  37.1465730   2.1135620  45.0831890  36.8007750
   2.2030410  41.5437190  36.3783500   2.6593190  42.3542440  36.6043690
   1.8518620  41.2260330  37.2101990   4.5063020  47.0543530  43.6075800
   5.1505240  47.2602910  44.2849220   4.8692460  46.2931930  43.1546650
   5.7795100  45.0575880  42.3253250   6.4217330  44.3569040  42.4385420
   6.3044450  45.8374320  42.1450140   9.6250820  45.3424500  32.0492390
   9.3988400  44.6254940  32.6417030   9.2347020  45.0936940  31.2114140
   7.5532720  45.8570780  45.5289310   7.8888960  46.4437470  46.2067230
   6.6333060  45.7263490  45.7587100   9.2067070  43.2596440  33.7106550
   8.9188770  43.7209130  34.4984430  10.0019240  42.7994210  33.9790770
   3.3821300  45.9062110  48.6977370   3.0618170  45.1871350  49.2423060
   2.7079660  46.5817180  48.7713430   6.5974900  36.1388270  44.0614170
   6.9655720  35.3183480  44.3893740   5.7373100  36.1990160  44.4769820
   9.9636930  35.0945210  34.8701730   9.3350090  35.1990880  34.1559960
   9.4688850  35.3141990  35.6595610   4.4095070  46.8150800  32.3035710
   4.5107050  46.6114790  31.3737690   3.5096810  46.5609080  32.5083490
   3.5576890  38.7927860  44.2852140   4.0562140  39.2673680  44.9503990
   3.6999840  37.8691380  44.4922170   5.9636390  34.0981820  37.7255400
   5.8404170  34.1167950  36.7764910   6.9120950  34.1460760  37.8453800
   3.0513180  49.3337120  36.9983380   3.3054680  49.2958510  36.0762750
   2.1025660  49.2070450  36.9911630  10.7643750  35.0095820  45.1280530
  10.2617350  35.7501220  45.4674340  11.5800410  35.3979820  44.8117320
   9.0565760  40.2529000  38.5741890   8.1155900  40.2679230  38.7489580
   9.3709830  39.4664960  39.0202190  11.0591340  47.4237850  40.2496150
  11.1838760  48.2469020  40.7219960  11.9256900  47.2128580  39.9020300
   6.3731780  44.8095000  49.0574270   5.7669940  44.8326600  48.3170020
   6.0685890  44.0778040  49.5941520   7.8032150  48.5375290  47.6683680
   8.7553900  48.4533310  47.6183920   7.6560370  49.2017000  48.3417470
  10.6941350  47.9169500  33.1675590  10.4082860  47.5034640  32.3529770
  10.4960900  48.8457210  33.0476110   2.1588580  43.9102780  31.6081200
   2.0539220  43.2955130  32.3342580   1.9912800  43.3868670  30.8244210
   2.3102900  42.5959580  47.5870430   1.5448570  43.1644580  47.5025100
   2.4918860  42.3035790  46.6938660   5.3991310  42.9722810  32.2123190
   4.8501410  43.4192110  32.8565930   6.0210570  42.4672060  32.7360860
   9.4526250  44.3264910  48.1445450  10.1935720  44.6640670  47.6412910
   8.6898930  44.4956970  47.5915220   3.5794070  40.9551340  31.3565590
   4.0999730  40.2400360  30.9906740   4.2262470  41.5937210  31.6566100
   8.1271910  42.3779740  46.6800660   8.5412930  42.5324820  47.5291080
   7.1922910  42.5034960  46.8426440   8.5994080  39.7175900  48.6839810
   9.1814850  38.9628220  48.5960290   8.7755850  40.2483340  47.9071290
   2.4827590  33.4345890  44.0284150   2.0344890  33.4570150  43.1829700
   1.8492790  33.0364910  44.6254450   2.8887140  42.3300220  44.6496590
   3.3075250  43.1732950  44.4772830   1.9695770  42.4672260  44.4203370
   5.2251040  40.0616400  46.0334430   5.3447250  39.4657540  46.7729270
   6.0845040  40.0986090  45.6135730   7.5638940  40.6153590  44.6096940
   7.0374160  41.1396210  44.0062080   7.9070280  41.2480980  45.2406670
   6.8113240  36.2203560  47.5243270   6.1228760  35.5585100  47.4593260
   7.5319260  35.7741830  47.9691730   7.4413640  32.8155190  33.5833530
   7.7215930  31.9723090  33.9392950   6.6679370  33.0478300  34.0972280
   3.5956770  49.8704440  46.0240970   3.5215470  50.7739580  46.3313340
   2.6935610  49.5516340  45.9963040   4.1442100  49.0362950  33.6467330
   5.0392890  49.3747920  33.6686090   4.1759730  48.3142360  33.0191610
  11.1236450  47.5666620  46.3533530  10.5238440  47.6259180  45.6097450
  11.2530350  46.6271600  46.4830380  12.3637900  45.3084440  31.6903240
  11.5330860  45.3761090  32.1610470  12.5409730  46.1988560  31.3870100
  11.8194360  42.0531920  34.1937440  12.5813270  42.6228570  34.2997130
  11.8348730  41.4859120  34.9645750  12.8254330  42.9082020  39.0379370
  13.1963160  42.1249340  38.6315340  13.4656260  43.5971120  38.8596670
   9.8088090  44.2918600  44.4509690   8.9947930  44.7215760  44.7135480
  10.2162290  44.9037010  43.8378740  11.8713530  42.3466290  31.3509960
  12.1462370  43.2545170  31.2229180  11.6824270  42.2828820  32.2871950
   8.2689140  35.3711140  32.6463590   8.6874020  35.1842120  31.8060250
   7.9625200  34.5190190  32.9566520  11.7678870  40.2835280  36.3439390
  11.3922470  39.5163210  35.9120680  11.0381990  40.6657980  36.8314320
  11.1578490  39.4306800  45.9778910  10.9264580  39.2019550  45.0776860
  11.4183040  40.3506350  45.9323800   9.5966560  34.6563230  48.7558610
  10.4736740  34.6646630  49.1392610   9.6087400  33.9194070  48.1450960
  11.0429830  38.5092770  39.6446630  11.5667310  38.0155420  39.0136800
  11.6289250  38.6443130  40.3894200  11.2219550  38.5932640  43.1666180
  10.2722260  38.5596180  43.2811170  11.4032560  39.5032750  42.9315950
  10.5329800  37.7666120  35.5839040  11.0288920  37.5336990  36.3687920
  10.3345870  36.9277960  35.1676680  11.9616960  36.4027070  38.1176720
  11.8516240  36.2483110  39.0558990  12.7224550  35.8748010  37.8752130
  10.3082680  32.3421200  44.5759720  10.9454900  32.9555340  44.9418910
  10.4557570  32.3781860  43.6308950  12.8507230  34.2334990  31.3582860
  13.7756540  34.1016170  31.1501150  12.8283020  34.3127810  32.3119310
  12.9245720  35.0045650  33.9839570  12.1297220  34.9390770  34.5132480
  13.1289000  35.9396290  33.9724920   9.8664140  49.0437200  37.9777960
  10.4623210  48.7221770  37.3012380  10.1242290  48.5709020  38.7691230
   3.6787160  33.4947390  47.4834820   3.6176050  34.0869220  48.2330230
   4.6187540  33.3873350  47.3385080   6.3161720  33.1517450  47.1227110
   6.9302130  33.4696740  46.4608190   6.8611280  32.6666040  47.7422970
  12.7336900  49.0509080  44.5288950  12.2395180  49.4477950  43.8116080
  12.1250190  48.4258290  44.9226230   7.0569760  31.7149590  43.4496400
   6.1829600  32.0484700  43.2469330   6.9480510  31.2422770  44.2748270
   7.9641740  33.9220460  44.8338120   7.6355100  33.1072220  44.4539850
   8.9124040  33.8790270  44.7103810  10.4176350  49.6932500  41.8075690
   9.9579320  50.4448310  41.4333710   9.7888810  48.9738970  41.7490490
   3.5867570  48.8929230  41.8092800   3.8745380  48.6383530  40.9325810
   4.0990790  48.3406590  42.3998370   4.8044580  32.6319430  42.3889310
   4.0216370  33.1064930  42.6686070   4.5107510  31.7274260  42.2802490
   9.3565650  33.3342530  40.4338400   9.7973740  33.2787630  39.5860000
   9.0873240  34.2500540  40.5048580  11.2204220  32.9657770  38.4447220
  11.1592620  32.0218990  38.2978240  11.9996250  33.0737860  38.9900680
   2.6898800  35.0506180  37.9005340   1.8773310  34.6763070  37.5601220
   3.1940440  34.2951260  38.2026530   7.1923780  31.7148630  39.1388410
   7.7953150  32.2868840  39.6136930   6.4516770  32.2788070  38.9162310
  10.3358380  32.1170190  34.4128690  10.5309010  33.0153640  34.6796120
   9.5488250  31.8857270  34.9061640   3.6539930  49.8145330  49.1761000
   4.5807240  49.5789600  49.2196960   3.6390360  50.6417330  48.6947030
  11.8884990  49.3570900  36.1735250  12.0637180  48.6708640  35.5296170
  11.1906560  49.8817950  35.7811920   7.4419000  31.8943660  49.5183350
   7.3284450  32.2138270  50.4134870   8.2588740  32.2956170  49.2220630
  10.2217490  49.0415190  49.0002040  11.0142810  48.5464420  48.7928000
  10.5150640  49.7205330  49.6077650   6.3477150  39.9136130  19.8818090
   6.2671200  38.9990740  19.6109800   5.9341570  40.4103200  19.1757800
   4.4795190  41.6915150  21.7627360   3.7037290  41.2115590  22.0525930
   5.1308120  41.0120800  21.5883520   8.5002620  46.0975340  20.5426490
   8.0384150  45.3262580  20.8713660   9.3128170  46.1241410  21.0478940
   4.7265930  48.3833350  20.1630480   4.1077370  48.8390850  19.5924920
   5.5817710  48.5384810  19.7620180   3.9204180  44.3672340  21.7697520
   3.8512460  43.4262280  21.6086650   4.6824040  44.4573750  22.3420090
   4.9509350  37.1742720  21.9966450   5.3274170  36.3014600  21.8840120
   4.8528860  37.5101420  21.1056890   8.7333470  34.6693160  18.9294790
   9.5543090  34.1789730  18.9720270   8.7667550  35.2590820  19.6826630
  13.0233020  36.6859910  25.4938420  12.3185190  37.0741620  24.9753530
  13.2890940  37.3810200  26.0959350   5.5929280  43.2672590  17.5562390
   4.9746550  43.7322040  16.9925110   6.1052530  43.9600070  17.9731900
   8.9694950  36.6093540  21.7022330   8.2650520  36.8978430  22.2825440
   9.3307110  37.4193650  21.3421890  10.5857730  46.2268670  23.9649810
   9.9021250  46.8967780  23.9566480  11.1252020  46.4249320  23.1994670
  12.0381870  36.0548330  22.0931540  11.0906780  36.0887310  22.2246970
  12.3631860  36.8687280  22.4780900   2.5701410  32.3545510  20.3887530
   2.8776390  31.7992400  19.6723030   1.6402110  32.4889970  20.2060520
   8.1216470  48.0712800  22.6794990   8.1343630  47.6675090  21.8117250
   7.5691690  48.8460090  22.5756420   9.4161890  44.7929020  17.7685160
   9.3058220  43.8503350  17.8934580   9.4130140  45.1544660  18.6547920
   7.5201910  42.9742640  24.0077600   7.9370700  42.7602750  23.1731060
   8.2441730  43.2315430  24.5786220   4.9582170  40.4194340  17.1247650
   4.0311450  40.3531720  17.3536120   5.1106990  41.3574470  17.0102890
   4.9451250  36.6911340  14.1214810   4.0054920  36.8525300  14.2067270
   5.2634510  37.4097020  13.5750800  11.4664010  41.3729860  24.0993840
  10.6382640  41.4422950  23.6243970  12.0614490  41.9584170  23.6309670
   8.9879460  41.9814640  17.6282900   8.3691880  41.6434190  16.9809200
   8.9703910  41.3374400  18.3362090   8.4306020  38.1599180  25.0448710
   8.0177200  38.9852890  25.2988700   7.6981970  37.5744220  24.8525070
   9.1206120  48.2058510  25.7329690   8.6436680  49.0130700  25.5402300
   8.4367910  47.5536840  25.8855900   7.1644160  41.2201450  14.6355650
   7.6037440  40.3823880  14.4893470   7.8772580  41.8530850  14.7219790
   5.2739540  46.1597520  18.6036890   5.7135450  46.9021850  18.1892280
   5.2126430  46.4024090  19.5275850  10.7461300  32.4744260  12.9496690
  10.4333960  32.5671090  13.8495760  11.5073770  33.0525290  12.8994120
  12.7005330  47.9670450  30.8021080  13.1765050  48.4453340  31.4810160
  13.3212490  47.8987940  30.0766580  12.1038580  45.1583300  27.9621090
  12.2301640  44.9195180  27.0438270  12.1459960  44.3267840  28.4343170
   5.9655320  48.8611300  26.5315900   6.4799990  48.7719310  27.3338330
   5.1224400  49.2071000  26.8243810   7.9409720  49.1466640  15.9599900
   7.7810860  48.8569580  16.8581730   7.7756430  48.3706770  15.4245130
   7.6435850  46.6554200  14.5197900   6.9501010  46.6531490  13.8600180
   8.3858710  46.2313520  14.0892070   7.2085780  48.2816910  18.5946390
   7.6642730  47.5006290  18.9085010   7.5478300  48.9923730  19.1387570
  11.9562590  37.2115760  28.9270830  11.3406860  37.7195430  28.3986290
  11.6359010  36.3114090  28.8696770   4.0176910  36.0507650  26.3933020
   3.5556280  36.2590670  27.2052960   3.6155020  35.2367000  26.0903690
   9.0181420  37.2716600  27.5229680   8.1675010  36.9722350  27.8438750
   8.8583210  37.5158610  26.6113500   6.1131130  38.7718350  29.6228470
   6.4384540  37.9382100  29.2830700   6.9011460  39.2946870  29.7706800
   2.8465920  32.8049830  15.6703530   2.2220100  32.8009700  16.3956840
   2.7596040  31.9380790  15.2739500   1.7683000  33.7286460  22.6487300
   2.0655330  34.6349290  22.5679320   2.3168560  33.2405240  22.0346870
   6.7519080  38.3136070  17.1169600   6.1527970  39.0371870  16.9333220
   7.2998690  38.2512850  16.3346050   1.9620530  39.2058280  29.1839220
   1.8664130  38.2653010  29.0339620   2.8052510  39.4273350  28.7887290
   5.3583950  36.9499610  19.1472880   5.7513520  37.2671810  18.3341570
   5.7200800  36.0711490  19.2617400   3.6676120  35.7006920  30.4069740
   2.9774440  35.5079120  31.0415830   4.4108420  35.9841560  30.9394040
   5.9439090  39.5405360  23.2423660   5.2120210  40.0492170  23.5913760
   5.5463430  38.7235340  22.9412440   2.3816480  36.2159560  21.6476150
   2.3852540  35.7749510  20.7980690   3.2767600  36.5376890  21.7547970
   2.4436630  37.2171640  14.6382910   2.5649450  37.1758120  15.5868730
   2.0585140  38.0795790  14.4829640   6.4065000  34.9939040  22.6546600
   6.4237740  35.4447690  23.4988450   6.1580580  34.0944680  22.8680040
   9.8335750  32.4071220  28.4932980  10.1581520  31.6760880  29.0190960
   9.8692260  32.0884860  27.5913970   2.6824450  40.2761340  23.3941560
   3.0494580  39.8019910  24.1402900   2.4929510  41.1502910  23.7349900
   9.7593590  42.5196330  22.1019010  10.4792710  43.0151620  21.7115120
   9.5575410  41.8414220  21.4572880   5.2203530  33.9134290  16.2448400
   4.4068140  33.4147460  16.1693710   5.0265480  34.7532540  15.8284750
   5.1412390  42.5905390  27.9888010   5.0749700  41.6701060  27.7345600
   4.5117530  42.6880830  28.7032650   7.9351920  38.2853940  14.5410560
   8.8231540  38.5971170  14.3661900   7.9057010  37.4126190  14.1491140
   3.9312510  44.4577630  15.2198730   4.2728210  45.2019860  14.7242050
   3.1025220  44.7708750  15.5823560   5.0729120  45.4125960  27.7391810
   5.0873660  44.4806920  27.5210720   4.3654220  45.4985720  28.3781580
  10.2066190  39.5965780  14.0090420  10.1229910  40.0280000  13.1586860
  10.9260380  40.0564130  14.4417240  11.2840330  42.0533300  27.0860390
  10.5588520  42.6462080  26.8889780  11.8115790  42.0456840  26.2873760
  11.2353440  46.4508040  16.7372550  10.5929600  45.7963660  17.0116270
  10.8484100  46.8563130  15.9613220   6.8139920  43.7793470  20.5844240
   7.1663740  43.1821600  19.9245610   5.9302250  43.4537700  20.7552490
   2.9003200  44.5391160  17.9914650   3.5874330  45.0860370  18.3722240
   2.1135620  45.0831890  18.0264260   2.2030410  41.5437190  17.6040010
   2.6593190  42.3542440  17.8300200   1.8518620  41.2260330  18.4358500
   4.5063020  47.0543530  24.8332310   5.1505240  47.2602910  25.5105730
   4.8692460  46.2931930  24.3803160   5.7795100  45.0575880  23.5509760
   6.4217330  44.3569040  23.6641930   6.3044450  45.8374320  23.3706650
   9.6250820  45.3424500  13.2748900   9.3988400  44.6254940  13.8673540
   9.2347020  45.0936940  12.4370650   7.5532720  45.8570780  26.7545820
   7.8888960  46.4437470  27.4323740   6.6333060  45.7263490  26.9843610
   9.2067070  43.2596440  14.9363060   8.9188770  43.7209130  15.7240940
  10.0019240  42.7994210  15.2047280   3.3821300  45.9062110  29.9233880
   3.0618170  45.1871350  30.4679570   2.7079660  46.5817180  29.9969940
   6.5974900  36.1388270  25.2870680   6.9655720  35.3183480  25.6150250
   5.7373100  36.1990160  25.7026330   9.9636930  35.0945210  16.0958240
   9.3350090  35.1990880  15.3816470   9.4688850  35.3141990  16.8852120
   4.4095070  46.8150800  13.5292220   4.5107050  46.6114790  12.5994200
   3.5096810  46.5609080  13.7340000   3.5576890  38.7927860  25.5108650
   4.0562140  39.2673680  26.1760500   3.6999840  37.8691380  25.7178680
   5.9636390  34.0981820  18.9511910   5.8404170  34.1167950  18.0021420
   6.9120950  34.1460760  19.0710310   3.0513180  49.3337120  18.2239890
   3.3054680  49.2958510  17.3019260   2.1025660  49.2070450  18.2168140
  10.7643750  35.0095820  26.3537040  10.2617350  35.7501220  26.6930850
  11.5800410  35.3979820  26.0373830   9.0565760  40.2529000  19.7998400
   8.1155900  40.2679230  19.9746090   9.3709830  39.4664960  20.2458700
  11.0591340  47.4237850  21.4752660  11.1838760  48.2469020  21.9476470
  11.9256900  47.2128580  21.1276810   6.3731780  44.8095000  30.2830780
   5.7669940  44.8326600  29.5426530   6.0685890  44.0778040  30.8198030
   7.8032150  48.5375290  28.8940190   8.7553900  48.4533310  28.8440430
   7.6560370  49.2017000  29.5673980  10.6941350  47.9169500  14.3932100
  10.4082860  47.5034640  13.5786280  10.4960900  48.8457210  14.2732620
   2.1588580  43.9102780  12.8337710   2.0539220  43.2955130  13.5599090
   1.9912800  43.3868670  12.0500720   2.3102900  42.5959580  28.8126940
   1.5448570  43.1644580  28.7281610   2.4918860  42.3035790  27.9195170
   5.3991310  42.9722810  13.4379700   4.8501410  43.4192110  14.0822440
   6.0210570  42.4672060  13.9617370   9.4526250  44.3264910  29.3701960
  10.1935720  44.6640670  28.8669420   8.6898930  44.4956970  28.8171730
   3.5794070  40.9551340  12.5822100   4.0999730  40.2400360  12.2163250
   4.2262470  41.5937210  12.8822610   8.1271910  42.3779740  27.9057170
   8.5412930  42.5324820  28.7547590   7.1922910  42.5034960  28.0682950
   8.5994080  39.7175900  29.9096320   9.1814850  38.9628220  29.8216800
   8.7755850  40.2483340  29.1327800   2.4827590  33.4345890  25.2540660
   2.0344890  33.4570150  24.4086210   1.8492790  33.0364910  25.8510960
   2.8887140  42.3300220  25.8753100   3.3075250  43.1732950  25.7029340
   1.9695770  42.4672260  25.6459880   5.2251040  40.0616400  27.2590940
   5.3447250  39.4657540  27.9985780   6.0845040  40.0986090  26.8392240
   7.5638940  40.6153590  25.8353450   7.0374160  41.1396210  25.2318590
   7.9070280  41.2480980  26.4663180   6.8113240  36.2203560  28.7499780
   6.1228760  35.5585100  28.6849770   7.5319260  35.7741830  29.1948240
   7.4413640  32.8155190  14.8090040   7.7215930  31.9723090  15.1649460
   6.6679370  33.0478300  15.3228790   3.5956770  49.8704440  27.2497480
   3.5215470  50.7739580  27.5569850   2.6935610  49.5516340  27.2219550
   1.9793060  34.0482200  13.2537240   1.6315060  33.3706190  12.6739690
   2.1805830  33.5871710  14.0680630   4.1442100  49.0362950  14.8723840
   5.0392890  49.3747920  14.8942600   4.1759730  48.3142360  14.2448120
  11.1236450  47.5666620  27.5790040  10.5238440  47.6259180  26.8353960
  11.2530350  46.6271600  27.7086890  12.3637900  45.3084440  12.9159750
  11.5330860  45.3761090  13.3866980  12.5409730  46.1988560  12.6126610
  11.8194360  42.0531920  15.4193950  12.5813270  42.6228570  15.5253640
  11.8348730  41.4859120  16.1902260  12.8254330  42.9082020  20.2635880
  13.1963160  42.1249340  19.8571850  13.4656260  43.5971120  20.0853180
   9.8088090  44.2918600  25.6766200   8.9947930  44.7215760  25.9391990
  10.2162290  44.9037010  25.0635250  11.8713530  42.3466290  12.5766470
  12.1462370  43.2545170  12.4485690  11.6824270  42.2828820  13.5128460
   8.2689140  35.3711140  13.8720100   8.6874020  35.1842120  13.0316760
   7.9625200  34.5190190  14.1823030  11.7678870  40.2835280  17.5695900
  11.3922470  39.5163210  17.1377190  11.0381990  40.6657980  18.0570830
  11.1578490  39.4306800  27.2035420  10.9264580  39.2019550  26.3033370
  11.4183040  40.3506350  27.1580310   9.5966560  34.6563230  29.9815120
  10.4736740  34.6646630  30.3649120   9.6087400  33.9194070  29.3707470
  11.0429830  38.5092770  20.8703140  11.5667310  38.0155420  20.2393310
  11.6289250  38.6443130  21.6150710  11.2219550  38.5932640  24.3922690
  10.2722260  38.5596180  24.5067680  11.4032560  39.5032750  24.1572460
  10.5329800  37.7666120  16.8095550  11.0288920  37.5336990  17.5944430
  10.3345870  36.9277960  16.3933190  11.9616960  36.4027070  19.3433230
  11.8516240  36.2483110  20.2815500  12.7224550  35.8748010  19.1008640
  10.3082680  32.3421200  25.8016230  10.9454900  32.9555340  26.1675420
  10.4557570  32.3781860  24.8565460  12.8507230  34.2334990  12.5839370
  13.7756540  34.1016170  12.3757660  12.8283020  34.3127810  13.5375820
  12.9245720  35.0045650  15.2096080  12.1297220  34.9390770  15.7388990
  13.1289000  35.9396290  15.1981430   3.6787160  33.4947390  28.7091330
   3.6176050  34.0869220  29.4586740   4.6187540  33.3873350  28.5641590
   6.3161720  33.1517450  28.3483620   6.9302130  33.4696740  27.6864700
   6.8611280  32.6666040  28.9679480  12.7336900  49.0509080  25.7545460
  12.2395180  49.4477950  25.0372590  12.1250190  48.4258290  26.1482740
   7.0569760  31.7149590  24.6752910   6.1829600  32.0484700  24.4725840
   6.9480510  31.2422770  25.5004780   7.9641740  33.9220460  26.0594630
   7.6355100  33.1072220  25.6796360   8.9124040  33.8790270  25.9360320
  10.4176350  49.6932500  23.0332200   9.9579320  50.4448310  22.6590220
   9.7888810  48.9738970  22.9747000   3.5867570  48.8929230  23.0349310
   3.8745380  48.6383530  22.1582320   4.0990790  48.3406590  23.6254880
   4.8044580  32.6319430  23.6145820   4.0216370  33.1064930  23.8942580
   4.5107510  31.7274260  23.5059000   9.3565650  33.3342530  21.6594910
   9.7973740  33.2787630  20.8116510   9.0873240  34.2500540  21.7305090
  11.2204220  32.9657770  19.6703730  11.1592620  32.0218990  19.5234750
  11.9996250  33.0737860  20.2157190   2.6898800  35.0506180  19.1261850
   1.8773310  34.6763070  18.7857730   3.1940440  34.2951260  19.4283040
   7.1923780  31.7148630  20.3644920   7.7953150  32.2868840  20.8393440
   6.4516770  32.2788070  20.1418820  10.3358380  32.1170190  15.6385200
  10.5309010  33.0153640  15.9052630   9.5488250  31.8857270  16.1318150
   3.6539930  49.8145330  30.4017510   4.5807240  49.5789600  30.4453470
   3.6390360  50.6417330  29.9203540  11.8884990  49.3570900  17.3991760
  12.0637180  48.6708640  16.7552680  11.1906560  49.8817950  17.0068430
   7.4419000  31.8943660  30.7439860   7.3284450  32.2138270  31.6391380
   8.2588740  32.2956170  30.4477140  10.2217490  49.0415190  30.2258550
  11.0142810  48.5464420  30.0184510  10.5150640  49.7205330  30.8334160
   4.4795190  41.6915150   2.9883870   3.7037290  41.2115590   3.2782440
   5.1308120  41.0120800   2.8140030   8.5002620  46.0975340   1.7683000
   8.0384150  45.3262580   2.0970170   9.3128170  46.1241410   2.2735450
   3.9204180  44.3672340   2.9954030   3.8512460  43.4262280   2.8343160
   4.6824040  44.4573750   3.5676600   4.9509350  37.1742720   3.2222960
   5.3274170  36.3014600   3.1096630   4.8528860  37.5101420   2.3313400
  13.0233020  36.6859910   6.7194930  12.3185190  37.0741620   6.2010040
  13.2890940  37.3810200   7.3215860   8.9694950  36.6093540   2.9278840
   8.2650520  36.8978430   3.5081950   9.3307110  37.4193650   2.5678400
  10.5857730  46.2268670   5.1906320   9.9021250  46.8967780   5.1822990
  11.1252020  46.4249320   4.4251180  12.0381870  36.0548330   3.3188050
  11.0906780  36.0887310   3.4503480  12.3631860  36.8687280   3.7037410
   8.1216470  48.0712800   3.9051500   8.1343630  47.6675090   3.0373760
   7.5691690  48.8460090   3.8012930   7.5201910  42.9742640   5.2334110
   7.9370700  42.7602750   4.3987570   8.2441730  43.2315430   5.8042730
  11.4664010  41.3729860   5.3250350  10.6382640  41.4422950   4.8500480
  12.0614490  41.9584170   4.8566180   8.4306020  38.1599180   6.2705220
   8.0177200  38.9852890   6.5245210   7.6981970  37.5744220   6.0781580
   9.1206120  48.2058510   6.9586200   8.6436680  49.0130700   6.7658810
   8.4367910  47.5536840   7.1112410  12.7005330  47.9670450  12.0277590
  13.1765050  48.4453340  12.7066670  13.3212490  47.8987940  11.3023090
  12.1038580  45.1583300   9.1877600  12.2301640  44.9195180   8.2694780
  12.1459960  44.3267840   9.6599680   5.9655320  48.8611300   7.7572410
   6.4799990  48.7719310   8.5594840   5.1224400  49.2071000   8.0500320
  11.9562590  37.2115760  10.1527340  11.3406860  37.7195430   9.6242800
  11.6359010  36.3114090  10.0953280   4.0176910  36.0507650   7.6189530
   3.5556280  36.2590670   8.4309470   3.6155020  35.2367000   7.3160200
   9.0181420  37.2716600   8.7486190   8.1675010  36.9722350   9.0695260
   8.8583210  37.5158610   7.8370010   6.1131130  38.7718350  10.8484980
   6.4384540  37.9382100  10.5087210   6.9011460  39.2946870  10.9963310
   1.7683000  33.7286460   3.8743810   2.0655330  34.6349290   3.7935830
   2.3168560  33.2405240   3.2603380   1.9620530  39.2058280  10.4095730
   1.8664130  38.2653010  10.2596130   2.8052510  39.4273350  10.0143800
   3.6676120  35.7006920  11.6326250   2.9774440  35.5079120  12.2672340
   4.4108420  35.9841560  12.1650550   2.3816480  36.2159560   2.8732660
   2.3852540  35.7749510   2.0237200   3.2767600  36.5376890   2.9804480
   6.4065000  34.9939040   3.8803110   6.4237740  35.4447690   4.7244960
   6.1580580  34.0944680   4.0936550   9.8335750  32.4071220   9.7189490
  10.1581520  31.6760880  10.2447470   9.8692260  32.0884860   8.8170480
   2.6824450  40.2761340   4.6198070   3.0494580  39.8019910   5.3659410
   2.4929510  41.1502910   4.9606410   9.7593590  42.5196330   3.3275520
  10.4792710  43.0151620   2.9371630   9.5575410  41.8414220   2.6829390
   5.1412390  42.5905390   9.2144520   5.0749700  41.6701060   8.9602110
   4.5117530  42.6880830   9.9289160   5.0729120  45.4125960   8.9648320
   5.0873660  44.4806920   8.7467230   4.3654220  45.4985720   9.6038090
  11.2840330  42.0533300   8.3116900  10.5588520  42.6462080   8.1146290
  11.8115790  42.0456840   7.5130270   4.5063020  47.0543530   6.0588820
   5.1505240  47.2602910   6.7362240   4.8692460  46.2931930   5.6059670
   5.7795100  45.0575880   4.7766270   6.4217330  44.3569040   4.8898440
   6.3044450  45.8374320   4.5963160   7.5532720  45.8570780   7.9802330
   7.8888960  46.4437470   8.6580250   6.6333060  45.7263490   8.2100120
   3.3821300  45.9062110  11.1490390   3.0618170  45.1871350  11.6936080
   2.7079660  46.5817180  11.2226450   6.5974900  36.1388270   6.5127190
   6.9655720  35.3183480   6.8406760   5.7373100  36.1990160   6.9282840
   3.5576890  38.7927860   6.7365160   4.0562140  39.2673680   7.4017010
   3.6999840  37.8691380   6.9435190  10.7643750  35.0095820   7.5793550
  10.2617350  35.7501220   7.9187360  11.5800410  35.3979820   7.2630340
  11.0591340  47.4237850   2.7009170  11.1838760  48.2469020   3.1732980
  11.9256900  47.2128580   2.3533320   6.3731780  44.8095000  11.5087290
   5.7669940  44.8326600  10.7683040   6.0685890  44.0778040  12.0454540
   7.8032150  48.5375290  10.1196700   8.7553900  48.4533310  10.0696940
   7.6560370  49.2017000  10.7930490   2.3102900  42.5959580  10.0383450
   1.5448570  43.1644580   9.9538120   2.4918860  42.3035790   9.1451680
   9.4526250  44.3264910  10.5958470  10.1935720  44.6640670  10.0925930
   8.6898930  44.4956970  10.0428240   8.1271910  42.3779740   9.1313680
   8.5412930  42.5324820   9.9804100   7.1922910  42.5034960   9.2939460
   8.5994080  39.7175900  11.1352830   9.1814850  38.9628220  11.0473310
   8.7755850  40.2483340  10.3584310   2.4827590  33.4345890   6.4797170
   2.0344890  33.4570150   5.6342720   1.8492790  33.0364910   7.0767470
   2.8887140  42.3300220   7.1009610   3.3075250  43.1732950   6.9285850
   1.9695770  42.4672260   6.8716390   5.2251040  40.0616400   8.4847450
   5.3447250  39.4657540   9.2242290   6.0845040  40.0986090   8.0648750
   7.5638940  40.6153590   7.0609960   7.0374160  41.1396210   6.4575100
   7.9070280  41.2480980   7.6919690   6.8113240  36.2203560   9.9756290
   6.1228760  35.5585100   9.9106280   7.5319260  35.7741830  10.4204750
   3.5956770  49.8704440   8.4753990   3.5215470  50.7739580   8.7826360
   2.6935610  49.5516340   8.4476060  11.1236450  47.5666620   8.8046550
  10.5238440  47.6259180   8.0610470  11.2530350  46.6271600   8.9343400
   9.8088090  44.2918600   6.9022710   8.9947930  44.7215760   7.1648500
  10.2162290  44.9037010   6.2891760  11.1578490  39.4306800   8.4291930
  10.9264580  39.2019550   7.5289880  11.4183040  40.3506350   8.3836820
   9.5966560  34.6563230  11.2071630  10.4736740  34.6646630  11.5905630
   9.6087400  33.9194070  10.5963980  11.0429830  38.5092770   2.0959650
  11.5667310  38.0155420   1.4649820  11.6289250  38.6443130   2.8407220
  11.2219550  38.5932640   5.6179200  10.2722260  38.5596180   5.7324190
  11.4032560  39.5032750   5.3828970  10.3082680  32.3421200   7.0272740
  10.9454900  32.9555340   7.3931930  10.4557570  32.3781860   6.0821970
   3.6787160  33.4947390   9.9347840   3.6176050  34.0869220  10.6843250
   4.6187540  33.3873350   9.7898100   6.3161720  33.1517450   9.5740130
   6.9302130  33.4696740   8.9121210   6.8611280  32.6666040  10.1935990
  12.7336900  49.0509080   6.9801970  12.2395180  49.4477950   6.2629100
  12.1250190  48.4258290   7.3739250   7.0569760  31.7149590   5.9009420
   6.1829600  32.0484700   5.6982350   6.9480510  31.2422770   6.7261290
   7.9641740  33.9220460   7.2851140   7.6355100  33.1072220   6.9052870
   8.9124040  33.8790270   7.1616830  10.4176350  49.6932500   4.2588710
   9.9579320  50.4448310   3.8846730   9.7888810  48.9738970   4.2003510
   3.5867570  48.8929230   4.2605820   3.8745380  48.6383530   3.3838830
   4.0990790  48.3406590   4.8511390   4.8044580  32.6319430   4.8402330
   4.0216370  33.1064930   5.1199090   4.5107510  31.7274260   4.7315510
   9.3565650  33.3342530   2.8851420   9.7973740  33.2787630   2.0373020
   9.0873240  34.2500540   2.9561600   3.6539930  49.8145330  11.6274020
   4.5807240  49.5789600  11.6709980   3.6390360  50.6417330  11.1460050
   7.4419000  31.8943660  11.9696370   7.3284450  32.2138270  12.8647890
   8.2588740  32.2956170  11.6733650  10.2217490  49.0415190  11.4515060
  11.0142810  48.5464420  11.2441020  10.5150640  49.7205330  12.0590670
   6.3477150  21.1392640  57.4305070   6.2671200  20.2247250  57.1596780
   5.9341570  21.6359710  56.7244780   4.4795190  22.9171660  59.3114340
   3.7037290  22.4372100  59.6012910   5.1308120  22.2377310  59.1370500
   8.5002620  27.3231850  58.0913470   8.0384150  26.5519090  58.4200640
   9.3128170  27.3497920  58.5965920   4.7265930  29.6089860  57.7117460
   4.1077370  30.0647360  57.1411900   5.5817710  29.7641320  57.3107160
   3.9204180  25.5928850  59.3184500   3.8512460  24.6518790  59.1573630
   4.6824040  25.6830260  59.8907070   4.9509350  18.3999230  59.5453430
   5.3274170  17.5271110  59.4327100   4.8528860  18.7357930  58.6543870
   8.7333470  15.8949670  56.4781770   9.5543090  15.4046240  56.5207250
   8.7667550  16.4847330  57.2313610   5.5929280  24.4929100  55.1049370
   4.9746550  24.9578550  54.5412090   6.1052530  25.1856580  55.5218880
   8.9694950  17.8350050  59.2509310   8.2650520  18.1234940  59.8312420
   9.3307110  18.6450160  58.8908870  12.0381870  17.2804840  59.6418520
  11.0906780  17.3143820  59.7733950  12.3631860  18.0943790  60.0267880
   2.5701410  13.5802020  57.9374510   2.8776390  13.0248910  57.2210010
   1.6402110  13.7146480  57.7547500   8.1216470  29.2969310  60.2281970
   8.1343630  28.8931600  59.3604230   7.5691690  30.0716600  60.1243400
   9.4161890  26.0185530  55.3172140   9.3058220  25.0759860  55.4421560
   9.4130140  26.3801170  56.2034900   4.9582170  21.6450850  54.6734630
   4.0311450  21.5788230  54.9023100   5.1106990  22.5830980  54.5589870
   4.9451250  17.9167850  51.6701790   4.0054920  18.0781810  51.7554250
   5.2634510  18.6353530  51.1237780   8.9879460  23.2071150  55.1769880
   8.3691880  22.8690700  54.5296180   8.9703910  22.5630910  55.8849070
   7.1644160  22.4457960  52.1842630   7.6037440  21.6080390  52.0380450
   7.8772580  23.0787360  52.2706770   5.2739540  27.3854030  56.1523870
   5.7135450  28.1278360  55.7379260   5.2126430  27.6280600  57.0762830
  10.7461300  13.7000770  50.4983670  10.4333960  13.7927600  51.3982740
  11.5073770  14.2781800  50.4481100   7.9409720  30.3723150  53.5086880
   7.7810860  30.0826090  54.4068710   7.7756430  29.5963280  52.9732110
   7.6435850  27.8810710  52.0684880   6.9501010  27.8788000  51.4087160
   8.3858710  27.4570030  51.6379050   7.2085780  29.5073420  56.1433370
   7.6642730  28.7262800  56.4571990   7.5478300  30.2180240  56.6874550
   2.8465920  14.0306340  53.2190510   2.2220100  14.0266210  53.9443820
   2.7596040  13.1637300  52.8226480   1.7683000  14.9542970  60.1974280
   2.0655330  15.8605800  60.1166300   2.3168560  14.4661750  59.5833850
   6.7519080  19.5392580  54.6656580   6.1527970  20.2628380  54.4820200
   7.2998690  19.4769360  53.8833030   5.3583950  18.1756120  56.6959860
   5.7513520  18.4928320  55.8828550   5.7200800  17.2968000  56.8104380
   2.3816480  17.4416070  59.1963130   2.3852540  17.0006020  58.3467670
   3.2767600  17.7633400  59.3034950   2.4436630  18.4428150  52.1869890
   2.5649450  18.4014630  53.1355710   2.0585140  19.3052300  52.0316620
   9.7593590  23.7452840  59.6505990  10.4792710  24.2408130  59.2602100
   9.5575410  23.0670730  59.0059860   5.2203530  15.1390800  53.7935380
   4.4068140  14.6403970  53.7180690   5.0265480  15.9789050  53.3771730
   7.9351920  19.5110450  52.0897540   8.8231540  19.8227680  51.9148880
   7.9057010  18.6382700  51.6978120   3.9312510  25.6834140  52.7685710
   4.2728210  26.4276370  52.2729030   3.1025220  25.9965260  53.1310540
  10.2066190  20.8222290  51.5577400  10.1229910  21.2536510  50.7073840
  10.9260380  21.2820640  51.9904220  11.2353440  27.6764550  54.2859530
  10.5929600  27.0220170  54.5603250  10.8484100  28.0819640  53.5100200
   6.8139920  25.0049980  58.1331220   7.1663740  24.4078110  57.4732590
   5.9302250  24.6794210  58.3039470   2.9003200  25.7647670  55.5401630
   3.5874330  26.3116880  55.9209220   2.1135620  26.3088400  55.5751240
   2.2030410  22.7693700  55.1526990   2.6593190  23.5798950  55.3787180
   1.8518620  22.4516840  55.9845480   9.6250820  26.5681010  50.8235880
   9.3988400  25.8511450  51.4160520   9.2347020  26.3193450  49.9857630
   9.2067070  24.4852950  52.4850040   8.9188770  24.9465640  53.2727920
  10.0019240  24.0250720  52.7534260   9.9636930  16.3201720  53.6445220
   9.3350090  16.4247390  52.9303450   9.4688850  16.5398500  54.4339100
   4.4095070  28.0407310  51.0779200   4.5107050  27.8371300  50.1481180
   3.5096810  27.7865590  51.2826980   5.9636390  15.3238330  56.4998890
   5.8404170  15.3424460  55.5508400   6.9120950  15.3717270  56.6197290
   3.0513180  30.5593630  55.7726870   3.3054680  30.5215020  54.8506240
   2.1025660  30.4326960  55.7655120   9.0565760  21.4785510  57.3485380
   8.1155900  21.4935740  57.5233070   9.3709830  20.6921470  57.7945680
  11.0591340  28.6494360  59.0239640  11.1838760  29.4725530  59.4963450
  11.9256900  28.4385090  58.6763790  10.6941350  29.1426010  51.9419080
  10.4082860  28.7291150  51.1273260  10.4960900  30.0713720  51.8219600
   2.1588580  25.1359290  50.3824690   2.0539220  24.5211640  51.1086070
   1.9912800  24.6125180  49.5987700   5.3991310  24.1979320  50.9866680
   4.8501410  24.6448620  51.6309420   6.0210570  23.6928570  51.5104350
   3.5794070  22.1807850  50.1309080   4.0999730  21.4656870  49.7650230
   4.2262470  22.8193720  50.4309590   7.4413640  14.0411700  52.3577020
   7.7215930  13.1979600  52.7136440   6.6679370  14.2734810  52.8715770
   1.9793060  15.2738710  50.8024220   1.6315060  14.5962700  50.2226670
   2.1805830  14.8128220  51.6167610   4.1442100  30.2619460  52.4210820
   5.0392890  30.6004430  52.4429580   4.1759730  29.5398870  51.7935100
  12.3637900  26.5340950  50.4646730  11.5330860  26.6017600  50.9353960
  12.5409730  27.4245070  50.1613590  11.8194360  23.2788430  52.9680930
  12.5813270  23.8485080  53.0740620  11.8348730  22.7115630  53.7389240
  12.8254330  24.1338530  57.8122860  13.1963160  23.3505850  57.4058830
  13.4656260  24.8227630  57.6340160  11.8713530  23.5722800  50.1253450
  12.1462370  24.4801680  49.9972670  11.6824270  23.5085330  51.0615440
   8.2689140  16.5967650  51.4207080   8.6874020  16.4098630  50.5803740
   7.9625200  15.7446700  51.7310010  11.7678870  21.5091790  55.1182880
  11.3922470  20.7419720  54.6864170  11.0381990  21.8914490  55.6057810
  11.0429830  19.7349280  58.4190120  11.5667310  19.2411930  57.7880290
  11.6289250  19.8699640  59.1637690  10.5329800  18.9922630  54.3582530
  11.0288920  18.7593500  55.1431410  10.3345870  18.1534470  53.9420170
  11.9616960  17.6283580  56.8920210  11.8516240  17.4739620  57.8302480
  12.7224550  17.1004520  56.6495620  12.8507230  15.4591500  50.1326350
  13.7756540  15.3272680  49.9244640  12.8283020  15.5384320  51.0862800
  12.9245720  16.2302160  52.7583060  12.1297220  16.1647280  53.2875970
  13.1289000  17.1652800  52.7468410   9.8664140  30.2693710  56.7521450
  10.4623210  29.9478280  56.0755870  10.1242290  29.7965530  57.5434720
   9.3565650  14.5599040  59.2081890   9.7973740  14.5044140  58.3603490
   9.0873240  15.4757050  59.2792070  11.2204220  14.1914280  57.2190710
  11.1592620  13.2475500  57.0721730  11.9996250  14.2994370  57.7644170
   2.6898800  16.2762690  56.6748830   1.8773310  15.9019580  56.3344710
   3.1940440  15.5207770  56.9770020   7.1923780  12.9405140  57.9131900
   7.7953150  13.5125350  58.3880420   6.4516770  13.5044580  57.6905800
  10.3358380  13.3426700  53.1872180  10.5309010  14.2410150  53.4539610
   9.5488250  13.1113780  53.6805130  11.8884990  30.5827410  54.9478740
  12.0637180  29.8965150  54.3039660  11.1906560  31.1074460  54.5555410
   6.3477150  21.1392640  38.6561580   6.2671200  20.2247250  38.3853290
   5.9341570  21.6359710  37.9501290   4.4795190  22.9171660  40.5370850
   3.7037290  22.4372100  40.8269420   5.1308120  22.2377310  40.3627010
   8.5002620  27.3231850  39.3169980   8.0384150  26.5519090  39.6457150
   9.3128170  27.3497920  39.8222430   4.7265930  29.6089860  38.9373970
   4.1077370  30.0647360  38.3668410   5.5817710  29.7641320  38.5363670
   3.9204180  25.5928850  40.5441010   3.8512460  24.6518790  40.3830140
   4.6824040  25.6830260  41.1163580   4.9509350  18.3999230  40.7709940
   5.3274170  17.5271110  40.6583610   4.8528860  18.7357930  39.8800380
   8.7333470  15.8949670  37.7038280   9.5543090  15.4046240  37.7463760
   8.7667550  16.4847330  38.4570120  13.0233020  17.9116420  44.2681910
  12.3185190  18.2998130  43.7497020  13.2890940  18.6066710  44.8702840
   5.5929280  24.4929100  36.3305880   4.9746550  24.9578550  35.7668600
   6.1052530  25.1856580  36.7475390   8.9694950  17.8350050  40.4765820
   8.2650520  18.1234940  41.0568930   9.3307110  18.6450160  40.1165380
  10.5857730  27.4525180  42.7393300   9.9021250  28.1224290  42.7309970
  11.1252020  27.6505830  41.9738160  12.0381870  17.2804840  40.8675030
  11.0906780  17.3143820  40.9990460  12.3631860  18.0943790  41.2524390
   2.5701410  13.5802020  39.1631020   2.8776390  13.0248910  38.4466520
   1.6402110  13.7146480  38.9804010   8.1216470  29.2969310  41.4538480
   8.1343630  28.8931600  40.5860740   7.5691690  30.0716600  41.3499910
   9.4161890  26.0185530  36.5428650   9.3058220  25.0759860  36.6678070
   9.4130140  26.3801170  37.4291410   7.5201910  24.1999150  42.7821090
   7.9370700  23.9859260  41.9474550   8.2441730  24.4571940  43.3529710
   4.9582170  21.6450850  35.8991140   4.0311450  21.5788230  36.1279610
   5.1106990  22.5830980  35.7846380   4.9451250  17.9167850  32.8958300
   4.0054920  18.0781810  32.9810760   5.2634510  18.6353530  32.3494290
  11.4664010  22.5986370  42.8737330  10.6382640  22.6679460  42.3987460
  12.0614490  23.1840680  42.4053160   8.9879460  23.2071150  36.4026390
   8.3691880  22.8690700  35.7552690   8.9703910  22.5630910  37.1105580
   8.4306020  19.3855690  43.8192200   8.0177200  20.2109400  44.0732190
   7.6981970  18.8000730  43.6268560   9.1206120  29.4315020  44.5073180
   8.6436680  30.2387210  44.3145790   8.4367910  28.7793350  44.6599390
   7.1644160  22.4457960  33.4099140   7.6037440  21.6080390  33.2636960
   7.8772580  23.0787360  33.4963280   5.2739540  27.3854030  37.3780380
   5.7135450  28.1278360  36.9635770   5.2126430  27.6280600  38.3019340
  10.7461300  13.7000770  31.7240180  10.4333960  13.7927600  32.6239250
  11.5073770  14.2781800  31.6737610  12.7005330  29.1926960  49.5764570
  13.1765050  29.6709850  50.2553650  13.3212490  29.1244450  48.8510070
  12.1038580  26.3839810  46.7364580  12.2301640  26.1451690  45.8181760
  12.1459960  25.5524350  47.2086660   5.9655320  30.0867810  45.3059390
   6.4799990  29.9975820  46.1081820   5.1224400  30.4327510  45.5987300
   7.9409720  30.3723150  34.7343390   7.7810860  30.0826090  35.6325220
   7.7756430  29.5963280  34.1988620   7.6435850  27.8810710  33.2941390
   6.9501010  27.8788000  32.6343670   8.3858710  27.4570030  32.8635560
   7.2085780  29.5073420  37.3689880   7.6642730  28.7262800  37.6828500
   7.5478300  30.2180240  37.9131060  11.9562590  18.4372270  47.7014320
  11.3406860  18.9451940  47.1729780  11.6359010  17.5370600  47.6440260
   4.0176910  17.2764160  45.1676510   3.5556280  17.4847180  45.9796450
   3.6155020  16.4623510  44.8647180   9.0181420  18.4973110  46.2973170
   8.1675010  18.1978860  46.6182240   8.8583210  18.7415120  45.3856990
   6.1131130  19.9974860  48.3971960   6.4384540  19.1638610  48.0574190
   6.9011460  20.5203380  48.5450290   2.8465920  14.0306340  34.4447020
   2.2220100  14.0266210  35.1700330   2.7596040  13.1637300  34.0482990
   1.7683000  14.9542970  41.4230790   2.0655330  15.8605800  41.3422810
   2.3168560  14.4661750  40.8090360   6.7519080  19.5392580  35.8913090
   6.1527970  20.2628380  35.7076710   7.2998690  19.4769360  35.1089540
   1.9620530  20.4314790  47.9582710   1.8664130  19.4909520  47.8083110
   2.8052510  20.6529860  47.5630780   5.3583950  18.1756120  37.9216370
   5.7513520  18.4928320  37.1085060   5.7200800  17.2968000  38.0360890
   3.6676120  16.9263430  49.1813230   2.9774440  16.7335630  49.8159320
   4.4108420  17.2098070  49.7137530   5.9439090  20.7661870  42.0167150
   5.2120210  21.2748680  42.3657250   5.5463430  19.9491850  41.7155930
   2.3816480  17.4416070  40.4219640   2.3852540  17.0006020  39.5724180
   3.2767600  17.7633400  40.5291460   2.4436630  18.4428150  33.4126400
   2.5649450  18.4014630  34.3612220   2.0585140  19.3052300  33.2573130
   6.4065000  16.2195550  41.4290090   6.4237740  16.6704200  42.2731940
   6.1580580  15.3201190  41.6423530   9.8335750  13.6327730  47.2676470
  10.1581520  12.9017390  47.7934450   9.8692260  13.3141370  46.3657460
   2.6824450  21.5017850  42.1685050   3.0494580  21.0276420  42.9146390
   2.4929510  22.3759420  42.5093390   9.7593590  23.7452840  40.8762500
  10.4792710  24.2408130  40.4858610   9.5575410  23.0670730  40.2316370
   5.2203530  15.1390800  35.0191890   4.4068140  14.6403970  34.9437200
   5.0265480  15.9789050  34.6028240   5.1412390  23.8161900  46.7631500
   5.0749700  22.8957570  46.5089090   4.5117530  23.9137340  47.4776140
   7.9351920  19.5110450  33.3154050   8.8231540  19.8227680  33.1405390
   7.9057010  18.6382700  32.9234630   3.9312510  25.6834140  33.9942220
   4.2728210  26.4276370  33.4985540   3.1025220  25.9965260  34.3567050
   5.0729120  26.6382470  46.5135300   5.0873660  25.7063430  46.2954210
   4.3654220  26.7242230  47.1525070  10.2066190  20.8222290  32.7833910
  10.1229910  21.2536510  31.9330350  10.9260380  21.2820640  33.2160730
  11.2840330  23.2789810  45.8603880  10.5588520  23.8718590  45.6633270
  11.8115790  23.2713350  45.0617250  11.2353440  27.6764550  35.5116040
  10.5929600  27.0220170  35.7859760  10.8484100  28.0819640  34.7356710
   6.8139920  25.0049980  39.3587730   7.1663740  24.4078110  38.6989100
   5.9302250  24.6794210  39.5295980   2.9003200  25.7647670  36.7658140
   3.5874330  26.3116880  37.1465730   2.1135620  26.3088400  36.8007750
   2.2030410  22.7693700  36.3783500   2.6593190  23.5798950  36.6043690
   1.8518620  22.4516840  37.2101990   4.5063020  28.2800040  43.6075800
   5.1505240  28.4859420  44.2849220   4.8692460  27.5188440  43.1546650
   5.7795100  26.2832390  42.3253250   6.4217330  25.5825550  42.4385420
   6.3044450  27.0630830  42.1450140   9.6250820  26.5681010  32.0492390
   9.3988400  25.8511450  32.6417030   9.2347020  26.3193450  31.2114140
   7.5532720  27.0827290  45.5289310   7.8888960  27.6693980  46.2067230
   6.6333060  26.9520000  45.7587100   9.2067070  24.4852950  33.7106550
   8.9188770  24.9465640  34.4984430  10.0019240  24.0250720  33.9790770
   3.3821300  27.1318620  48.6977370   3.0618170  26.4127860  49.2423060
   2.7079660  27.8073690  48.7713430   6.5974900  17.3644780  44.0614170
   6.9655720  16.5439990  44.3893740   5.7373100  17.4246670  44.4769820
   9.9636930  16.3201720  34.8701730   9.3350090  16.4247390  34.1559960
   9.4688850  16.5398500  35.6595610   4.4095070  28.0407310  32.3035710
   4.5107050  27.8371300  31.3737690   3.5096810  27.7865590  32.5083490
   3.5576890  20.0184370  44.2852140   4.0562140  20.4930190  44.9503990
   3.6999840  19.0947890  44.4922170   5.9636390  15.3238330  37.7255400
   5.8404170  15.3424460  36.7764910   6.9120950  15.3717270  37.8453800
   3.0513180  30.5593630  36.9983380   3.3054680  30.5215020  36.0762750
   2.1025660  30.4326960  36.9911630  10.7643750  16.2352330  45.1280530
  10.2617350  16.9757730  45.4674340  11.5800410  16.6236330  44.8117320
   9.0565760  21.4785510  38.5741890   8.1155900  21.4935740  38.7489580
   9.3709830  20.6921470  39.0202190  11.0591340  28.6494360  40.2496150
  11.1838760  29.4725530  40.7219960  11.9256900  28.4385090  39.9020300
   6.3731780  26.0351510  49.0574270   5.7669940  26.0583110  48.3170020
   6.0685890  25.3034550  49.5941520   7.8032150  29.7631800  47.6683680
   8.7553900  29.6789820  47.6183920   7.6560370  30.4273510  48.3417470
  10.6941350  29.1426010  33.1675590  10.4082860  28.7291150  32.3529770
  10.4960900  30.0713720  33.0476110   2.1588580  25.1359290  31.6081200
   2.0539220  24.5211640  32.3342580   1.9912800  24.6125180  30.8244210
   2.3102900  23.8216090  47.5870430   1.5448570  24.3901090  47.5025100
   2.4918860  23.5292300  46.6938660   5.3991310  24.1979320  32.2123190
   4.8501410  24.6448620  32.8565930   6.0210570  23.6928570  32.7360860
   9.4526250  25.5521420  48.1445450  10.1935720  25.8897180  47.6412910
   8.6898930  25.7213480  47.5915220   3.5794070  22.1807850  31.3565590
   4.0999730  21.4656870  30.9906740   4.2262470  22.8193720  31.6566100
   8.1271910  23.6036250  46.6800660   8.5412930  23.7581330  47.5291080
   7.1922910  23.7291470  46.8426440   8.5994080  20.9432410  48.6839810
   9.1814850  20.1884730  48.5960290   8.7755850  21.4739850  47.9071290
   2.4827590  14.6602400  44.0284150   2.0344890  14.6826660  43.1829700
   1.8492790  14.2621420  44.6254450   2.8887140  23.5556730  44.6496590
   3.3075250  24.3989460  44.4772830   1.9695770  23.6928770  44.4203370
   5.2251040  21.2872910  46.0334430   5.3447250  20.6914050  46.7729270
   6.0845040  21.3242600  45.6135730   7.5638940  21.8410100  44.6096940
   7.0374160  22.3652720  44.0062080   7.9070280  22.4737490  45.2406670
   6.8113240  17.4460070  47.5243270   6.1228760  16.7841610  47.4593260
   7.5319260  16.9998340  47.9691730   7.4413640  14.0411700  33.5833530
   7.7215930  13.1979600  33.9392950   6.6679370  14.2734810  34.0972280
   3.5956770  31.0960950  46.0240970   3.5215470  31.9996090  46.3313340
   2.6935610  30.7772850  45.9963040   1.9793060  15.2738710  32.0280730
   1.6315060  14.5962700  31.4483180   2.1805830  14.8128220  32.8424120
   4.1442100  30.2619460  33.6467330   5.0392890  30.6004430  33.6686090
   4.1759730  29.5398870  33.0191610  11.1236450  28.7923130  46.3533530
  10.5238440  28.8515690  45.6097450  11.2530350  27.8528110  46.4830380
  12.3637900  26.5340950  31.6903240  11.5330860  26.6017600  32.1610470
  12.5409730  27.4245070  31.3870100  11.8194360  23.2788430  34.1937440
  12.5813270  23.8485080  34.2997130  11.8348730  22.7115630  34.9645750
  12.8254330  24.1338530  39.0379370  13.1963160  23.3505850  38.6315340
  13.4656260  24.8227630  38.8596670   9.8088090  25.5175110  44.4509690
   8.9947930  25.9472270  44.7135480  10.2162290  26.1293520  43.8378740
  11.8713530  23.5722800  31.3509960  12.1462370  24.4801680  31.2229180
  11.6824270  23.5085330  32.2871950   8.2689140  16.5967650  32.6463590
   8.6874020  16.4098630  31.8060250   7.9625200  15.7446700  32.9566520
  11.7678870  21.5091790  36.3439390  11.3922470  20.7419720  35.9120680
  11.0381990  21.8914490  36.8314320  11.1578490  20.6563310  45.9778910
  10.9264580  20.4276060  45.0776860  11.4183040  21.5762860  45.9323800
   9.5966560  15.8819740  48.7558610  10.4736740  15.8903140  49.1392610
   9.6087400  15.1450580  48.1450960  11.0429830  19.7349280  39.6446630
  11.5667310  19.2411930  39.0136800  11.6289250  19.8699640  40.3894200
  11.2219550  19.8189150  43.1666180  10.2722260  19.7852690  43.2811170
  11.4032560  20.7289260  42.9315950  10.5329800  18.9922630  35.5839040
  11.0288920  18.7593500  36.3687920  10.3345870  18.1534470  35.1676680
  11.9616960  17.6283580  38.1176720  11.8516240  17.4739620  39.0558990
  12.7224550  17.1004520  37.8752130  10.3082680  13.5677710  44.5759720
  10.9454900  14.1811850  44.9418910  10.4557570  13.6038370  43.6308950
  12.8507230  15.4591500  31.3582860  13.7756540  15.3272680  31.1501150
  12.8283020  15.5384320  32.3119310  12.9245720  16.2302160  33.9839570
  12.1297220  16.1647280  34.5132480  13.1289000  17.1652800  33.9724920
   9.8664140  30.2693710  37.9777960  10.4623210  29.9478280  37.3012380
  10.1242290  29.7965530  38.7691230   3.6787160  14.7203900  47.4834820
   3.6176050  15.3125730  48.2330230   4.6187540  14.6129860  47.3385080
   6.3161720  14.3773960  47.1227110   6.9302130  14.6953250  46.4608190
   6.8611280  13.8922550  47.7422970  12.7336900  30.2765590  44.5288950
  12.2395180  30.6734460  43.8116080  12.1250190  29.6514800  44.9226230
   7.0569760  12.9406100  43.4496400   6.1829600  13.2741210  43.2469330
   6.9480510  12.4679280  44.2748270   7.9641740  15.1476970  44.8338120
   7.6355100  14.3328730  44.4539850   8.9124040  15.1046780  44.7103810
  10.4176350  30.9189010  41.8075690   9.9579320  31.6704820  41.4333710
   9.7888810  30.1995480  41.7490490   3.5867570  30.1185740  41.8092800
   3.8745380  29.8640040  40.9325810   4.0990790  29.5663100  42.3998370
   4.8044580  13.8575940  42.3889310   4.0216370  14.3321440  42.6686070
   4.5107510  12.9530770  42.2802490   9.3565650  14.5599040  40.4338400
   9.7973740  14.5044140  39.5860000   9.0873240  15.4757050  40.5048580
  11.2204220  14.1914280  38.4447220  11.1592620  13.2475500  38.2978240
  11.9996250  14.2994370  38.9900680   2.6898800  16.2762690  37.9005340
   1.8773310  15.9019580  37.5601220   3.1940440  15.5207770  38.2026530
   7.1923780  12.9405140  39.1388410   7.7953150  13.5125350  39.6136930
   6.4516770  13.5044580  38.9162310  10.3358380  13.3426700  34.4128690
  10.5309010  14.2410150  34.6796120   9.5488250  13.1113780  34.9061640
   3.6539930  31.0401840  49.1761000   4.5807240  30.8046110  49.2196960
   3.6390360  31.8673840  48.6947030  11.8884990  30.5827410  36.1735250
  12.0637180  29.8965150  35.5296170  11.1906560  31.1074460  35.7811920
   7.4419000  13.1200170  49.5183350   7.3284450  13.4394780  50.4134870
   8.2588740  13.5212680  49.2220630  10.2217490  30.2671700  49.0002040
  11.0142810  29.7720930  48.7928000  10.5150640  30.9461840  49.6077650
   6.3477150  21.1392640  19.8818090   6.2671200  20.2247250  19.6109800
   5.9341570  21.6359710  19.1757800   4.4795190  22.9171660  21.7627360
   3.7037290  22.4372100  22.0525930   5.1308120  22.2377310  21.5883520
   8.5002620  27.3231850  20.5426490   8.0384150  26.5519090  20.8713660
   9.3128170  27.3497920  21.0478940   4.7265930  29.6089860  20.1630480
   4.1077370  30.0647360  19.5924920   5.5817710  29.7641320  19.7620180
   3.9204180  25.5928850  21.7697520   3.8512460  24.6518790  21.6086650
   4.6824040  25.6830260  22.3420090   4.9509350  18.3999230  21.9966450
   5.3274170  17.5271110  21.8840120   4.8528860  18.7357930  21.1056890
   8.7333470  15.8949670  18.9294790   9.5543090  15.4046240  18.9720270
   8.7667550  16.4847330  19.6826630  13.0233020  17.9116420  25.4938420
  12.3185190  18.2998130  24.9753530  13.2890940  18.6066710  26.0959350
   5.5929280  24.4929100  17.5562390   4.9746550  24.9578550  16.9925110
   6.1052530  25.1856580  17.9731900   8.9694950  17.8350050  21.7022330
   8.2650520  18.1234940  22.2825440   9.3307110  18.6450160  21.3421890
  10.5857730  27.4525180  23.9649810   9.9021250  28.1224290  23.9566480
  11.1252020  27.6505830  23.1994670  12.0381870  17.2804840  22.0931540
  11.0906780  17.3143820  22.2246970  12.3631860  18.0943790  22.4780900
   2.5701410  13.5802020  20.3887530   2.8776390  13.0248910  19.6723030
   1.6402110  13.7146480  20.2060520   8.1216470  29.2969310  22.6794990
   8.1343630  28.8931600  21.8117250   7.5691690  30.0716600  22.5756420
   9.4161890  26.0185530  17.7685160   9.3058220  25.0759860  17.8934580
   9.4130140  26.3801170  18.6547920   7.5201910  24.1999150  24.0077600
   7.9370700  23.9859260  23.1731060   8.2441730  24.4571940  24.5786220
   4.9582170  21.6450850  17.1247650   4.0311450  21.5788230  17.3536120
   5.1106990  22.5830980  17.0102890   4.9451250  17.9167850  14.1214810
   4.0054920  18.0781810  14.2067270   5.2634510  18.6353530  13.5750800
  11.4664010  22.5986370  24.0993840  10.6382640  22.6679460  23.6243970
  12.0614490  23.1840680  23.6309670   8.9879460  23.2071150  17.6282900
   8.3691880  22.8690700  16.9809200   8.9703910  22.5630910  18.3362090
   8.4306020  19.3855690  25.0448710   8.0177200  20.2109400  25.2988700
   7.6981970  18.8000730  24.8525070   9.1206120  29.4315020  25.7329690
   8.6436680  30.2387210  25.5402300   8.4367910  28.7793350  25.8855900
   7.1644160  22.4457960  14.6355650   7.6037440  21.6080390  14.4893470
   7.8772580  23.0787360  14.7219790   5.2739540  27.3854030  18.6036890
   5.7135450  28.1278360  18.1892280   5.2126430  27.6280600  19.5275850
  10.7461300  13.7000770  12.9496690  10.4333960  13.7927600  13.8495760
  11.5073770  14.2781800  12.8994120  12.7005330  29.1926960  30.8021080
  13.1765050  29.6709850  31.4810160  13.3212490  29.1244450  30.0766580
  12.1038580  26.3839810  27.9621090  12.2301640  26.1451690  27.0438270
  12.1459960  25.5524350  28.4343170   5.9655320  30.0867810  26.5315900
   6.4799990  29.9975820  27.3338330   5.1224400  30.4327510  26.8243810
   7.9409720  30.3723150  15.9599900   7.7810860  30.0826090  16.8581730
   7.7756430  29.5963280  15.4245130   7.6435850  27.8810710  14.5197900
   6.9501010  27.8788000  13.8600180   8.3858710  27.4570030  14.0892070
   7.2085780  29.5073420  18.5946390   7.6642730  28.7262800  18.9085010
   7.5478300  30.2180240  19.1387570  11.9562590  18.4372270  28.9270830
  11.3406860  18.9451940  28.3986290  11.6359010  17.5370600  28.8696770
   4.0176910  17.2764160  26.3933020   3.5556280  17.4847180  27.2052960
   3.6155020  16.4623510  26.0903690   9.0181420  18.4973110  27.5229680
   8.1675010  18.1978860  27.8438750   8.8583210  18.7415120  26.6113500
   6.1131130  19.9974860  29.6228470   6.4384540  19.1638610  29.2830700
   6.9011460  20.5203380  29.7706800   2.8465920  14.0306340  15.6703530
   2.2220100  14.0266210  16.3956840   2.7596040  13.1637300  15.2739500
   1.7683000  14.9542970  22.6487300   2.0655330  15.8605800  22.5679320
   2.3168560  14.4661750  22.0346870   6.7519080  19.5392580  17.1169600
   6.1527970  20.2628380  16.9333220   7.2998690  19.4769360  16.3346050
   1.9620530  20.4314790  29.1839220   1.8664130  19.4909520  29.0339620
   2.8052510  20.6529860  28.7887290   5.3583950  18.1756120  19.1472880
   5.7513520  18.4928320  18.3341570   5.7200800  17.2968000  19.2617400
   3.6676120  16.9263430  30.4069740   2.9774440  16.7335630  31.0415830
   4.4108420  17.2098070  30.9394040   5.9439090  20.7661870  23.2423660
   5.2120210  21.2748680  23.5913760   5.5463430  19.9491850  22.9412440
   2.3816480  17.4416070  21.6476150   2.3852540  17.0006020  20.7980690
   3.2767600  17.7633400  21.7547970   2.4436630  18.4428150  14.6382910
   2.5649450  18.4014630  15.5868730   2.0585140  19.3052300  14.4829640
   6.4065000  16.2195550  22.6546600   6.4237740  16.6704200  23.4988450
   6.1580580  15.3201190  22.8680040   9.8335750  13.6327730  28.4932980
  10.1581520  12.9017390  29.0190960   9.8692260  13.3141370  27.5913970
   2.6824450  21.5017850  23.3941560   3.0494580  21.0276420  24.1402900
   2.4929510  22.3759420  23.7349900   9.7593590  23.7452840  22.1019010
  10.4792710  24.2408130  21.7115120   9.5575410  23.0670730  21.4572880
   5.2203530  15.1390800  16.2448400   4.4068140  14.6403970  16.1693710
   5.0265480  15.9789050  15.8284750   5.1412390  23.8161900  27.9888010
   5.0749700  22.8957570  27.7345600   4.5117530  23.9137340  28.7032650
   7.9351920  19.5110450  14.5410560   8.8231540  19.8227680  14.3661900
   7.9057010  18.6382700  14.1491140   3.9312510  25.6834140  15.2198730
   4.2728210  26.4276370  14.7242050   3.1025220  25.9965260  15.5823560
   5.0729120  26.6382470  27.7391810   5.0873660  25.7063430  27.5210720
   4.3654220  26.7242230  28.3781580  10.2066190  20.8222290  14.0090420
  10.1229910  21.2536510  13.1586860  10.9260380  21.2820640  14.4417240
  11.2840330  23.2789810  27.0860390  10.5588520  23.8718590  26.8889780
  11.8115790  23.2713350  26.2873760  11.2353440  27.6764550  16.7372550
  10.5929600  27.0220170  17.0116270  10.8484100  28.0819640  15.9613220
   6.8139920  25.0049980  20.5844240   7.1663740  24.4078110  19.9245610
   5.9302250  24.6794210  20.7552490   2.9003200  25.7647670  17.9914650
   3.5874330  26.3116880  18.3722240   2.1135620  26.3088400  18.0264260
   2.2030410  22.7693700  17.6040010   2.6593190  23.5798950  17.8300200
   1.8518620  22.4516840  18.4358500   4.5063020  28.2800040  24.8332310
   5.1505240  28.4859420  25.5105730   4.8692460  27.5188440  24.3803160
   5.7795100  26.2832390  23.5509760   6.4217330  25.5825550  23.6641930
   6.3044450  27.0630830  23.3706650   9.6250820  26.5681010  13.2748900
   9.3988400  25.8511450  13.8673540   9.2347020  26.3193450  12.4370650
   7.5532720  27.0827290  26.7545820   7.8888960  27.6693980  27.4323740
   6.6333060  26.9520000  26.9843610   9.2067070  24.4852950  14.9363060
   8.9188770  24.9465640  15.7240940  10.0019240  24.0250720  15.2047280
   3.3821300  27.1318620  29.9233880   3.0618170  26.4127860  30.4679570
   2.7079660  27.8073690  29.9969940   6.5974900  17.3644780  25.2870680
   6.9655720  16.5439990  25.6150250   5.7373100  17.4246670  25.7026330
   9.9636930  16.3201720  16.0958240   9.3350090  16.4247390  15.3816470
   9.4688850  16.5398500  16.8852120   4.4095070  28.0407310  13.5292220
   4.5107050  27.8371300  12.5994200   3.5096810  27.7865590  13.7340000
   3.5576890  20.0184370  25.5108650   4.0562140  20.4930190  26.1760500
   3.6999840  19.0947890  25.7178680   5.9636390  15.3238330  18.9511910
   5.8404170  15.3424460  18.0021420   6.9120950  15.3717270  19.0710310
   3.0513180  30.5593630  18.2239890   3.3054680  30.5215020  17.3019260
   2.1025660  30.4326960  18.2168140  10.7643750  16.2352330  26.3537040
  10.2617350  16.9757730  26.6930850  11.5800410  16.6236330  26.0373830
   9.0565760  21.4785510  19.7998400   8.1155900  21.4935740  19.9746090
   9.3709830  20.6921470  20.2458700  11.0591340  28.6494360  21.4752660
  11.1838760  29.4725530  21.9476470  11.9256900  28.4385090  21.1276810
   6.3731780  26.0351510  30.2830780   5.7669940  26.0583110  29.5426530
   6.0685890  25.3034550  30.8198030   7.8032150  29.7631800  28.8940190
   8.7553900  29.6789820  28.8440430   7.6560370  30.4273510  29.5673980
  10.6941350  29.1426010  14.3932100  10.4082860  28.7291150  13.5786280
  10.4960900  30.0713720  14.2732620   2.1588580  25.1359290  12.8337710
   2.0539220  24.5211640  13.5599090   1.9912800  24.6125180  12.0500720
   2.3102900  23.8216090  28.8126940   1.5448570  24.3901090  28.7281610
   2.4918860  23.5292300  27.9195170   5.3991310  24.1979320  13.4379700
   4.8501410  24.6448620  14.0822440   6.0210570  23.6928570  13.9617370
   9.4526250  25.5521420  29.3701960  10.1935720  25.8897180  28.8669420
   8.6898930  25.7213480  28.8171730   3.5794070  22.1807850  12.5822100
   4.0999730  21.4656870  12.2163250   4.2262470  22.8193720  12.8822610
   8.1271910  23.6036250  27.9057170   8.5412930  23.7581330  28.7547590
   7.1922910  23.7291470  28.0682950   8.5994080  20.9432410  29.9096320
   9.1814850  20.1884730  29.8216800   8.7755850  21.4739850  29.1327800
   2.4827590  14.6602400  25.2540660   2.0344890  14.6826660  24.4086210
   1.8492790  14.2621420  25.8510960   2.8887140  23.5556730  25.8753100
   3.3075250  24.3989460  25.7029340   1.9695770  23.6928770  25.6459880
   5.2251040  21.2872910  27.2590940   5.3447250  20.6914050  27.9985780
   6.0845040  21.3242600  26.8392240   7.5638940  21.8410100  25.8353450
   7.0374160  22.3652720  25.2318590   7.9070280  22.4737490  26.4663180
   6.8113240  17.4460070  28.7499780   6.1228760  16.7841610  28.6849770
   7.5319260  16.9998340  29.1948240   7.4413640  14.0411700  14.8090040
   7.7215930  13.1979600  15.1649460   6.6679370  14.2734810  15.3228790
   3.5956770  31.0960950  27.2497480   3.5215470  31.9996090  27.5569850
   2.6935610  30.7772850  27.2219550   1.9793060  15.2738710  13.2537240
   1.6315060  14.5962700  12.6739690   2.1805830  14.8128220  14.0680630
   4.1442100  30.2619460  14.8723840   5.0392890  30.6004430  14.8942600
   4.1759730  29.5398870  14.2448120  11.1236450  28.7923130  27.5790040
  10.5238440  28.8515690  26.8353960  11.2530350  27.8528110  27.7086890
  12.3637900  26.5340950  12.9159750  11.5330860  26.6017600  13.3866980
  12.5409730  27.4245070  12.6126610  11.8194360  23.2788430  15.4193950
  12.5813270  23.8485080  15.5253640  11.8348730  22.7115630  16.1902260
  12.8254330  24.1338530  20.2635880  13.1963160  23.3505850  19.8571850
  13.4656260  24.8227630  20.0853180   9.8088090  25.5175110  25.6766200
   8.9947930  25.9472270  25.9391990  10.2162290  26.1293520  25.0635250
  11.8713530  23.5722800  12.5766470  12.1462370  24.4801680  12.4485690
  11.6824270  23.5085330  13.5128460   8.2689140  16.5967650  13.8720100
   8.6874020  16.4098630  13.0316760   7.9625200  15.7446700  14.1823030
  11.7678870  21.5091790  17.5695900  11.3922470  20.7419720  17.1377190
  11.0381990  21.8914490  18.0570830  11.1578490  20.6563310  27.2035420
  10.9264580  20.4276060  26.3033370  11.4183040  21.5762860  27.1580310
   9.5966560  15.8819740  29.9815120  10.4736740  15.8903140  30.3649120
   9.6087400  15.1450580  29.3707470  11.0429830  19.7349280  20.8703140
  11.5667310  19.2411930  20.2393310  11.6289250  19.8699640  21.6150710
  11.2219550  19.8189150  24.3922690  10.2722260  19.7852690  24.5067680
  11.4032560  20.7289260  24.1572460  10.5329800  18.9922630  16.8095550
  11.0288920  18.7593500  17.5944430  10.3345870  18.1534470  16.3933190
  11.9616960  17.6283580  19.3433230  11.8516240  17.4739620  20.2815500
  12.7224550  17.1004520  19.1008640  10.3082680  13.5677710  25.8016230
  10.9454900  14.1811850  26.1675420  10.4557570  13.6038370  24.8565460
  12.8507230  15.4591500  12.5839370  13.7756540  15.3272680  12.3757660
  12.8283020  15.5384320  13.5375820  12.9245720  16.2302160  15.2096080
  12.1297220  16.1647280  15.7388990  13.1289000  17.1652800  15.1981430
   9.8664140  30.2693710  19.2034470  10.4623210  29.9478280  18.5268890
  10.1242290  29.7965530  19.9947740   3.6787160  14.7203900  28.7091330
   3.6176050  15.3125730  29.4586740   4.6187540  14.6129860  28.5641590
   6.3161720  14.3773960  28.3483620   6.9302130  14.6953250  27.6864700
   6.8611280  13.8922550  28.9679480  12.7336900  30.2765590  25.7545460
  12.2395180  30.6734460  25.0372590  12.1250190  29.6514800  26.1482740
   7.0569760  12.9406100  24.6752910   6.1829600  13.2741210  24.4725840
   6.9480510  12.4679280  25.5004780   7.9641740  15.1476970  26.0594630
   7.6355100  14.3328730  25.6796360   8.9124040  15.1046780  25.9360320
  10.4176350  30.9189010  23.0332200   9.9579320  31.6704820  22.6590220
   9.7888810  30.1995480  22.9747000   3.5867570  30.1185740  23.0349310
   3.8745380  29.8640040  22.1582320   4.0990790  29.5663100  23.6254880
   4.8044580  13.8575940  23.6145820   4.0216370  14.3321440  23.8942580
   4.5107510  12.9530770  23.5059000   9.3565650  14.5599040  21.6594910
   9.7973740  14.5044140  20.8116510   9.0873240  15.4757050  21.7305090
  11.2204220  14.1914280  19.6703730  11.1592620  13.2475500  19.5234750
  11.9996250  14.2994370  20.2157190   2.6898800  16.2762690  19.1261850
   1.8773310  15.9019580  18.7857730   3.1940440  15.5207770  19.4283040
   7.1923780  12.9405140  20.3644920   7.7953150  13.5125350  20.8393440
   6.4516770  13.5044580  20.1418820  10.3358380  13.3426700  15.6385200
  10.5309010  14.2410150  15.9052630   9.5488250  13.1113780  16.1318150
   3.6539930  31.0401840  30.4017510   4.5807240  30.8046110  30.4453470
   3.6390360  31.8673840  29.9203540  11.8884990  30.5827410  17.3991760
  12.0637180  29.8965150  16.7552680  11.1906560  31.1074460  17.0068430
   7.4419000  13.1200170  30.7439860   7.3284450  13.4394780  31.6391380
   8.2588740  13.5212680  30.4477140  10.2217490  30.2671700  30.2258550
  11.0142810  29.7720930  30.0184510  10.5150640  30.9461840  30.8334160
   4.4795190  22.9171660   2.9883870   3.7037290  22.4372100   3.2782440
   5.1308120  22.2377310   2.8140030   8.5002620  27.3231850   1.7683000
   8.0384150  26.5519090   2.0970170   9.3128170  27.3497920   2.2735450
   3.9204180  25.5928850   2.9954030   3.8512460  24.6518790   2.8343160
   4.6824040  25.6830260   3.5676600   4.9509350  18.3999230   3.2222960
   5.3274170  17.5271110   3.1096630   4.8528860  18.7357930   2.3313400
  13.0233020  17.9116420   6.7194930  12.3185190  18.2998130   6.2010040
  13.2890940  18.6066710   7.3215860   8.9694950  17.8350050   2.9278840
   8.2650520  18.1234940   3.5081950   9.3307110  18.6450160   2.5678400
  10.5857730  27.4525180   5.1906320   9.9021250  28.1224290   5.1822990
  11.1252020  27.6505830   4.4251180  12.0381870  17.2804840   3.3188050
  11.0906780  17.3143820   3.4503480  12.3631860  18.0943790   3.7037410
   8.1216470  29.2969310   3.9051500   8.1343630  28.8931600   3.0373760
   7.5691690  30.0716600   3.8012930   7.5201910  24.1999150   5.2334110
   7.9370700  23.9859260   4.3987570   8.2441730  24.4571940   5.8042730
  11.4664010  22.5986370   5.3250350  10.6382640  22.6679460   4.8500480
  12.0614490  23.1840680   4.8566180   8.4306020  19.3855690   6.2705220
   8.0177200  20.2109400   6.5245210   7.6981970  18.8000730   6.0781580
   9.1206120  29.4315020   6.9586200   8.6436680  30.2387210   6.7658810
   8.4367910  28.7793350   7.1112410  12.7005330  29.1926960  12.0277590
  13.1765050  29.6709850  12.7066670  13.3212490  29.1244450  11.3023090
  12.1038580  26.3839810   9.1877600  12.2301640  26.1451690   8.2694780
  12.1459960  25.5524350   9.6599680   5.9655320  30.0867810   7.7572410
   6.4799990  29.9975820   8.5594840   5.1224400  30.4327510   8.0500320
  11.9562590  18.4372270  10.1527340  11.3406860  18.9451940   9.6242800
  11.6359010  17.5370600  10.0953280   4.0176910  17.2764160   7.6189530
   3.5556280  17.4847180   8.4309470   3.6155020  16.4623510   7.3160200
   9.0181420  18.4973110   8.7486190   8.1675010  18.1978860   9.0695260
   8.8583210  18.7415120   7.8370010   6.1131130  19.9974860  10.8484980
   6.4384540  19.1638610  10.5087210   6.9011460  20.5203380  10.9963310
   1.7683000  14.9542970   3.8743810   2.0655330  15.8605800   3.7935830
   2.3168560  14.4661750   3.2603380   1.9620530  20.4314790  10.4095730
   1.8664130  19.4909520  10.2596130   2.8052510  20.6529860  10.0143800
   3.6676120  16.9263430  11.6326250   2.9774440  16.7335630  12.2672340
   4.4108420  17.2098070  12.1650550   5.9439090  20.7661870   4.4680170
   5.2120210  21.2748680   4.8170270   5.5463430  19.9491850   4.1668950
   2.3816480  17.4416070   2.8732660   2.3852540  17.0006020   2.0237200
   3.2767600  17.7633400   2.9804480   6.4065000  16.2195550   3.8803110
   6.4237740  16.6704200   4.7244960   6.1580580  15.3201190   4.0936550
   9.8335750  13.6327730   9.7189490  10.1581520  12.9017390  10.2447470
   9.8692260  13.3141370   8.8170480   2.6824450  21.5017850   4.6198070
   3.0494580  21.0276420   5.3659410   2.4929510  22.3759420   4.9606410
   9.7593590  23.7452840   3.3275520  10.4792710  24.2408130   2.9371630
   9.5575410  23.0670730   2.6829390   5.1412390  23.8161900   9.2144520
   5.0749700  22.8957570   8.9602110   4.5117530  23.9137340   9.9289160
   5.0729120  26.6382470   8.9648320   5.0873660  25.7063430   8.7467230
   4.3654220  26.7242230   9.6038090  11.2840330  23.2789810   8.3116900
  10.5588520  23.8718590   8.1146290  11.8115790  23.2713350   7.5130270
   4.5063020  28.2800040   6.0588820   5.1505240  28.4859420   6.7362240
   4.8692460  27.5188440   5.6059670   5.7795100  26.2832390   4.7766270
   6.4217330  25.5825550   4.8898440   6.3044450  27.0630830   4.5963160
   7.5532720  27.0827290   7.9802330   7.8888960  27.6693980   8.6580250
   6.6333060  26.9520000   8.2100120   3.3821300  27.1318620  11.1490390
   3.0618170  26.4127860  11.6936080   2.7079660  27.8073690  11.2226450
   6.5974900  17.3644780   6.5127190   6.9655720  16.5439990   6.8406760
   5.7373100  17.4246670   6.9282840   3.5576890  20.0184370   6.7365160
   4.0562140  20.4930190   7.4017010   3.6999840  19.0947890   6.9435190
  10.7643750  16.2352330   7.5793550  10.2617350  16.9757730   7.9187360
  11.5800410  16.6236330   7.2630340  11.0591340  28.6494360   2.7009170
  11.1838760  29.4725530   3.1732980  11.9256900  28.4385090   2.3533320
   6.3731780  26.0351510  11.5087290   5.7669940  26.0583110  10.7683040
   6.0685890  25.3034550  12.0454540   7.8032150  29.7631800  10.1196700
   8.7553900  29.6789820  10.0696940   7.6560370  30.4273510  10.7930490
   2.3102900  23.8216090  10.0383450   1.5448570  24.3901090   9.9538120
   2.4918860  23.5292300   9.1451680   9.4526250  25.5521420  10.5958470
  10.1935720  25.8897180  10.0925930   8.6898930  25.7213480  10.0428240
   8.1271910  23.6036250   9.1313680   8.5412930  23.7581330   9.9804100
   7.1922910  23.7291470   9.2939460   8.5994080  20.9432410  11.1352830
   9.1814850  20.1884730  11.0473310   8.7755850  21.4739850  10.3584310
   2.4827590  14.6602400   6.4797170   2.0344890  14.6826660   5.6342720
   1.8492790  14.2621420   7.0767470   2.8887140  23.5556730   7.1009610
   3.3075250  24.3989460   6.9285850   1.9695770  23.6928770   6.8716390
   5.2251040  21.2872910   8.4847450   5.3447250  20.6914050   9.2242290
   6.0845040  21.3242600   8.0648750   7.5638940  21.8410100   7.0609960
   7.0374160  22.3652720   6.4575100   7.9070280  22.4737490   7.6919690
   6.8113240  17.4460070   9.9756290   6.1228760  16.7841610   9.9106280
   7.5319260  16.9998340  10.4204750   3.5956770  31.0960950   8.4753990
   3.5215470  31.9996090   8.7826360   2.6935610  30.7772850   8.4476060
  11.1236450  28.7923130   8.8046550  10.5238440  28.8515690   8.0610470
  11.2530350  27.8528110   8.9343400   9.8088090  25.5175110   6.9022710
   8.9947930  25.9472270   7.1648500  10.2162290  26.1293520   6.2891760
  11.1578490  20.6563310   8.4291930  10.9264580  20.4276060   7.5289880
  11.4183040  21.5762860   8.3836820   9.5966560  15.8819740  11.2071630
  10.4736740  15.8903140  11.5905630   9.6087400  15.1450580  10.5963980
  11.0429830  19.7349280   2.0959650  11.5667310  19.2411930   1.4649820
  11.6289250  19.8699640   2.8407220  11.2219550  19.8189150   5.6179200
  10.2722260  19.7852690   5.7324190  11.4032560  20.7289260   5.3828970
  10.3082680  13.5677710   7.0272740  10.9454900  14.1811850   7.3931930
  10.4557570  13.6038370   6.0821970   3.6787160  14.7203900   9.9347840
   3.6176050  15.3125730  10.6843250   4.6187540  14.6129860   9.7898100
   6.3161720  14.3773960   9.5740130   6.9302130  14.6953250   8.9121210
   6.8611280  13.8922550  10.1935990  12.7336900  30.2765590   6.9801970
  12.2395180  30.6734460   6.2629100  12.1250190  29.6514800   7.3739250
   7.0569760  12.9406100   5.9009420   6.1829600  13.2741210   5.6982350
   6.9480510  12.4679280   6.7261290   7.9641740  15.1476970   7.2851140
   7.6355100  14.3328730   6.9052870   8.9124040  15.1046780   7.1616830
  10.4176350  30.9189010   4.2588710   9.9579320  31.6704820   3.8846730
   9.7888810  30.1995480   4.2003510   3.5867570  30.1185740   4.2605820
   3.8745380  29.8640040   3.3838830   4.0990790  29.5663100   4.8511390
   4.8044580  13.8575940   4.8402330   4.0216370  14.3321440   5.1199090
   4.5107510  12.9530770   4.7315510   9.3565650  14.5599040   2.8851420
   9.7973740  14.5044140   2.0373020   9.0873240  15.4757050   2.9561600
   3.6539930  31.0401840  11.6274020   4.5807240  30.8046110  11.6709980
   3.6390360  31.8673840  11.1460050   7.4419000  13.1200170  11.9696370
   7.3284450  13.4394780  12.8647890   8.2588740  13.5212680  11.6733650
  10.2217490  30.2671700  11.4515060  11.0142810  29.7720930  11.2441020
  10.5150640  30.9461840  12.0590670   6.3477150   2.3649150  57.4305070
   6.2671200   1.4503760  57.1596780   5.9341570   2.8616220  56.7244780
   4.4795190   4.1428170  59.3114340   3.7037290   3.6628610  59.6012910
   5.1308120   3.4633820  59.1370500   8.5002620   8.5488360  58.0913470
   8.0384150   7.7775600  58.4200640   9.3128170   8.5754430  58.5965920
   4.7265930  10.8346370  57.7117460   4.1077370  11.2903870  57.1411900
   5.5817710  10.9897830  57.3107160   3.9204180   6.8185360  59.3184500
   3.8512460   5.8775300  59.1573630   4.6824040   6.9086770  59.8907070
   5.5929280   5.7185610  55.1049370   4.9746550   6.1835060  54.5412090
   6.1052530   6.4113090  55.5218880   8.1216470  10.5225820  60.2281970
   8.1343630  10.1188110  59.3604230   7.5691690  11.2973110  60.1243400
   9.4161890   7.2442040  55.3172140   9.3058220   6.3016370  55.4421560
   9.4130140   7.6057680  56.2034900   4.9582170   2.8707360  54.6734630
   4.0311450   2.8044740  54.9023100   5.1106990   3.8087490  54.5589870
   8.9879460   4.4327660  55.1769880   8.3691880   4.0947210  54.5296180
   8.9703910   3.7887420  55.8849070   7.1644160   3.6714470  52.1842630
   7.6037440   2.8336900  52.0380450   7.8772580   4.3043870  52.2706770
   5.2739540   8.6110540  56.1523870   5.7135450   9.3534870  55.7379260
   5.2126430   8.8537110  57.0762830   7.9409720  11.5979660  53.5086880
   7.7810860  11.3082600  54.4068710   7.7756430  10.8219790  52.9732110
   7.6435850   9.1067220  52.0684880   6.9501010   9.1044510  51.4087160
   8.3858710   8.6826540  51.6379050   7.2085780  10.7329930  56.1433370
   7.6642730   9.9519310  56.4571990   7.5478300  11.4436750  56.6874550
   9.7593590   4.9709350  59.6505990  10.4792710   5.4664640  59.2602100
   9.5575410   4.2927240  59.0059860   3.9312510   6.9090650  52.7685710
   4.2728210   7.6532880  52.2729030   3.1025220   7.2221770  53.1310540
  10.2066190   2.0478800  51.5577400  10.1229910   2.4793020  50.7073840
  10.9260380   2.5077150  51.9904220  11.2353440   8.9021060  54.2859530
  10.5929600   8.2476680  54.5603250  10.8484100   9.3076150  53.5100200
   6.8139920   6.2306490  58.1331220   7.1663740   5.6334620  57.4732590
   5.9302250   5.9050720  58.3039470   2.9003200   6.9904180  55.5401630
   3.5874330   7.5373390  55.9209220   2.1135620   7.5344910  55.5751240
   2.2030410   3.9950210  55.1526990   2.6593190   4.8055460  55.3787180
   1.8518620   3.6773350  55.9845480   9.6250820   7.7937520  50.8235880
   9.3988400   7.0767960  51.4160520   9.2347020   7.5449960  49.9857630
   9.2067070   5.7109460  52.4850040   8.9188770   6.1722150  53.2727920
  10.0019240   5.2507230  52.7534260   4.4095070   9.2663820  51.0779200
   4.5107050   9.0627810  50.1481180   3.5096810   9.0122100  51.2826980
   3.0513180  11.7850140  55.7726870   3.3054680  11.7471530  54.8506240
   2.1025660  11.6583470  55.7655120   9.0565760   2.7042020  57.3485380
   8.1155900   2.7192250  57.5233070   9.3709830   1.9177980  57.7945680
  11.0591340   9.8750870  59.0239640  11.1838760  10.6982040  59.4963450
  11.9256900   9.6641600  58.6763790  10.6941350  10.3682520  51.9419080
  10.4082860   9.9547660  51.1273260  10.4960900  11.2970230  51.8219600
   2.1588580   6.3615800  50.3824690   2.0539220   5.7468150  51.1086070
   1.9912800   5.8381690  49.5987700   5.3991310   5.4235830  50.9866680
   4.8501410   5.8705130  51.6309420   6.0210570   4.9185080  51.5104350
   3.5794070   3.4064360  50.1309080   4.0999730   2.6913380  49.7650230
   4.2262470   4.0450230  50.4309590   4.1442100  11.4875970  52.4210820
   5.0392890  11.8260940  52.4429580   4.1759730  10.7655380  51.7935100
  12.3637900   7.7597460  50.4646730  11.5330860   7.8274110  50.9353960
  12.5409730   8.6501580  50.1613590  11.8194360   4.5044940  52.9680930
  12.5813270   5.0741590  53.0740620  11.8348730   3.9372140  53.7389240
  12.8254330   5.3595040  57.8122860  13.1963160   4.5762360  57.4058830
  13.4656260   6.0484140  57.6340160  11.8713530   4.7979310  50.1253450
  12.1462370   5.7058190  49.9972670  11.6824270   4.7341840  51.0615440
  11.7678870   2.7348300  55.1182880  11.3922470   1.9676230  54.6864170
  11.0381990   3.1171000  55.6057810   9.8664140  11.4950220  56.7521450
  10.4623210  11.1734790  56.0755870  10.1242290  11.0222040  57.5434720
  11.8884990  11.8083920  54.9478740  12.0637180  11.1221660  54.3039660
  11.1906560  12.3330970  54.5555410   6.3477150   2.3649150  38.6561580
   6.2671200   1.4503760  38.3853290   5.9341570   2.8616220  37.9501290
   4.4795190   4.1428170  40.5370850   3.7037290   3.6628610  40.8269420
   5.1308120   3.4633820  40.3627010   8.5002620   8.5488360  39.3169980
   8.0384150   7.7775600  39.6457150   9.3128170   8.5754430  39.8222430
   4.7265930  10.8346370  38.9373970   4.1077370  11.2903870  38.3668410
   5.5817710  10.9897830  38.5363670   3.9204180   6.8185360  40.5441010
   3.8512460   5.8775300  40.3830140   4.6824040   6.9086770  41.1163580
   5.5929280   5.7185610  36.3305880   4.9746550   6.1835060  35.7668600
   6.1052530   6.4113090  36.7475390  10.5857730   8.6781690  42.7393300
   9.9021250   9.3480800  42.7309970  11.1252020   8.8762340  41.9738160
   8.1216470  10.5225820  41.4538480   8.1343630  10.1188110  40.5860740
   7.5691690  11.2973110  41.3499910   9.4161890   7.2442040  36.5428650
   9.3058220   6.3016370  36.6678070   9.4130140   7.6057680  37.4291410
   7.5201910   5.4255660  42.7821090   7.9370700   5.2115770  41.9474550
   8.2441730   5.6828450  43.3529710   4.9582170   2.8707360  35.8991140
   4.0311450   2.8044740  36.1279610   5.1106990   3.8087490  35.7846380
  11.4664010   3.8242880  42.8737330  10.6382640   3.8935970  42.3987460
  12.0614490   4.4097190  42.4053160   8.9879460   4.4327660  36.4026390
   8.3691880   4.0947210  35.7552690   8.9703910   3.7887420  37.1105580
   9.1206120  10.6571530  44.5073180   8.6436680  11.4643720  44.3145790
   8.4367910  10.0049860  44.6599390   7.1644160   3.6714470  33.4099140
   7.6037440   2.8336900  33.2636960   7.8772580   4.3043870  33.4963280
   5.2739540   8.6110540  37.3780380   5.7135450   9.3534870  36.9635770
   5.2126430   8.8537110  38.3019340  12.7005330  10.4183470  49.5764570
  13.1765050  10.8966360  50.2553650  13.3212490  10.3500960  48.8510070
  12.1038580   7.6096320  46.7364580  12.2301640   7.3708200  45.8181760
  12.1459960   6.7780860  47.2086660   5.9655320  11.3124320  45.3059390
   6.4799990  11.2232330  46.1081820   5.1224400  11.6584020  45.5987300
   7.9409720  11.5979660  34.7343390   7.7810860  11.3082600  35.6325220
   7.7756430  10.8219790  34.1988620   7.6435850   9.1067220  33.2941390
   6.9501010   9.1044510  32.6343670   8.3858710   8.6826540  32.8635560
   7.2085780  10.7329930  37.3689880   7.6642730   9.9519310  37.6828500
   7.5478300  11.4436750  37.9131060   2.6824450   2.7274360  42.1685050
   3.0494580   2.2532930  42.9146390   2.4929510   3.6015930  42.5093390
   9.7593590   4.9709350  40.8762500  10.4792710   5.4664640  40.4858610
   9.5575410   4.2927240  40.2316370   5.1412390   5.0418410  46.7631500
   5.0749700   4.1214080  46.5089090   4.5117530   5.1393850  47.4776140
   3.9312510   6.9090650  33.9942220   4.2728210   7.6532880  33.4985540
   3.1025220   7.2221770  34.3567050   5.0729120   7.8638980  46.5135300
   5.0873660   6.9319940  46.2954210   4.3654220   7.9498740  47.1525070
  10.2066190   2.0478800  32.7833910  10.1229910   2.4793020  31.9330350
  10.9260380   2.5077150  33.2160730  11.2840330   4.5046320  45.8603880
  10.5588520   5.0975100  45.6633270  11.8115790   4.4969860  45.0617250
  11.2353440   8.9021060  35.5116040  10.5929600   8.2476680  35.7859760
  10.8484100   9.3076150  34.7356710   6.8139920   6.2306490  39.3587730
   7.1663740   5.6334620  38.6989100   5.9302250   5.9050720  39.5295980
   2.9003200   6.9904180  36.7658140   3.5874330   7.5373390  37.1465730
   2.1135620   7.5344910  36.8007750   2.2030410   3.9950210  36.3783500
   2.6593190   4.8055460  36.6043690   1.8518620   3.6773350  37.2101990
   4.5063020   9.5056550  43.6075800   5.1505240   9.7115930  44.2849220
   4.8692460   8.7444950  43.1546650   5.7795100   7.5088900  42.3253250
   6.4217330   6.8082060  42.4385420   6.3044450   8.2887340  42.1450140
   9.6250820   7.7937520  32.0492390   9.3988400   7.0767960  32.6417030
   9.2347020   7.5449960  31.2114140   7.5532720   8.3083800  45.5289310
   7.8888960   8.8950490  46.2067230   6.6333060   8.1776510  45.7587100
   9.2067070   5.7109460  33.7106550   8.9188770   6.1722150  34.4984430
  10.0019240   5.2507230  33.9790770   3.3821300   8.3575130  48.6977370
   3.0618170   7.6384370  49.2423060   2.7079660   9.0330200  48.7713430
   4.4095070   9.2663820  32.3035710   4.5107050   9.0627810  31.3737690
   3.5096810   9.0122100  32.5083490   3.0513180  11.7850140  36.9983380
   3.3054680  11.7471530  36.0762750   2.1025660  11.6583470  36.9911630
   9.0565760   2.7042020  38.5741890   8.1155900   2.7192250  38.7489580
   9.3709830   1.9177980  39.0202190  11.0591340   9.8750870  40.2496150
  11.1838760  10.6982040  40.7219960  11.9256900   9.6641600  39.9020300
   6.3731780   7.2608020  49.0574270   5.7669940   7.2839620  48.3170020
   6.0685890   6.5291060  49.5941520   7.8032150  10.9888310  47.6683680
   8.7553900  10.9046330  47.6183920   7.6560370  11.6530020  48.3417470
  10.6941350  10.3682520  33.1675590  10.4082860   9.9547660  32.3529770
  10.4960900  11.2970230  33.0476110   2.1588580   6.3615800  31.6081200
   2.0539220   5.7468150  32.3342580   1.9912800   5.8381690  30.8244210
   2.3102900   5.0472600  47.5870430   1.5448570   5.6157600  47.5025100
   2.4918860   4.7548810  46.6938660   5.3991310   5.4235830  32.2123190
   4.8501410   5.8705130  32.8565930   6.0210570   4.9185080  32.7360860
   9.4526250   6.7777930  48.1445450  10.1935720   7.1153690  47.6412910
   8.6898930   6.9469990  47.5915220   3.5794070   3.4064360  31.3565590
   4.0999730   2.6913380  30.9906740   4.2262470   4.0450230  31.6566100
   8.1271910   4.8292760  46.6800660   8.5412930   4.9837840  47.5291080
   7.1922910   4.9547980  46.8426440   8.5994080   2.1688920  48.6839810
   9.1814850   1.4141240  48.5960290   8.7755850   2.6996360  47.9071290
   2.8887140   4.7813240  44.6496590   3.3075250   5.6245970  44.4772830
   1.9695770   4.9185280  44.4203370   5.2251040   2.5129420  46.0334430
   5.3447250   1.9170560  46.7729270   6.0845040   2.5499110  45.6135730
   7.5638940   3.0666610  44.6096940   7.0374160   3.5909230  44.0062080
   7.9070280   3.6994000  45.2406670   3.5956770  12.3217460  46.0240970
   3.5215470  13.2252600  46.3313340   2.6935610  12.0029360  45.9963040
  11.1236450  10.0179640  46.3533530  10.5238440  10.0772200  45.6097450
  11.2530350   9.0784620  46.4830380  12.3637900   7.7597460  31.6903240
  11.5330860   7.8274110  32.1610470  12.5409730   8.6501580  31.3870100
  11.8194360   4.5044940  34.1937440  12.5813270   5.0741590  34.2997130
  11.8348730   3.9372140  34.9645750  12.8254330   5.3595040  39.0379370
  13.1963160   4.5762360  38.6315340  13.4656260   6.0484140  38.8596670
   9.8088090   6.7431620  44.4509690   8.9947930   7.1728780  44.7135480
  10.2162290   7.3550030  43.8378740  11.8713530   4.7979310  31.3509960
  12.1462370   5.7058190  31.2229180  11.6824270   4.7341840  32.2871950
  11.7678870   2.7348300  36.3439390  11.3922470   1.9676230  35.9120680
  11.0381990   3.1171000  36.8314320  11.1578490   1.8819820  45.9778910
  10.9264580   1.6532570  45.0776860  11.4183040   2.8019370  45.9323800
   9.8664140  11.4950220  37.9777960  10.4623210  11.1734790  37.3012380
  10.1242290  11.0222040  38.7691230  12.7336900  11.5022100  44.5288950
  12.2395180  11.8990970  43.8116080  12.1250190  10.8771310  44.9226230
  10.4176350  12.1445520  41.8075690   9.9579320  12.8961330  41.4333710
   9.7888810  11.4251990  41.7490490   3.5867570  11.3442250  41.8092800
   3.8745380  11.0896550  40.9325810   4.0990790  10.7919610  42.3998370
   3.6539930  12.2658350  49.1761000   4.5807240  12.0302620  49.2196960
   3.6390360  13.0930350  48.6947030  11.8884990  11.8083920  36.1735250
  12.0637180  11.1221660  35.5296170  11.1906560  12.3330970  35.7811920
  10.2217490  11.4928210  49.0002040  11.0142810  10.9977440  48.7928000
  10.5150640  12.1718350  49.6077650   6.3477150   2.3649150  19.8818090
   6.2671200   1.4503760  19.6109800   5.9341570   2.8616220  19.1757800
   4.4795190   4.1428170  21.7627360   3.7037290   3.6628610  22.0525930
   5.1308120   3.4633820  21.5883520   8.5002620   8.5488360  20.5426490
   8.0384150   7.7775600  20.8713660   9.3128170   8.5754430  21.0478940
   4.7265930  10.8346370  20.1630480   4.1077370  11.2903870  19.5924920
   5.5817710  10.9897830  19.7620180   3.9204180   6.8185360  21.7697520
   3.8512460   5.8775300  21.6086650   4.6824040   6.9086770  22.3420090
   5.5929280   5.7185610  17.5562390   4.9746550   6.1835060  16.9925110
   6.1052530   6.4113090  17.9731900  10.5857730   8.6781690  23.9649810
   9.9021250   9.3480800  23.9566480  11.1252020   8.8762340  23.1994670
   8.1216470  10.5225820  22.6794990   8.1343630  10.1188110  21.8117250
   7.5691690  11.2973110  22.5756420   9.4161890   7.2442040  17.7685160
   9.3058220   6.3016370  17.8934580   9.4130140   7.6057680  18.6547920
   7.5201910   5.4255660  24.0077600   7.9370700   5.2115770  23.1731060
   8.2441730   5.6828450  24.5786220   4.9582170   2.8707360  17.1247650
   4.0311450   2.8044740  17.3536120   5.1106990   3.8087490  17.0102890
  11.4664010   3.8242880  24.0993840  10.6382640   3.8935970  23.6243970
  12.0614490   4.4097190  23.6309670   8.9879460   4.4327660  17.6282900
   8.3691880   4.0947210  16.9809200   8.9703910   3.7887420  18.3362090
   9.1206120  10.6571530  25.7329690   8.6436680  11.4643720  25.5402300
   8.4367910  10.0049860  25.8855900   7.1644160   3.6714470  14.6355650
   7.6037440   2.8336900  14.4893470   7.8772580   4.3043870  14.7219790
   5.2739540   8.6110540  18.6036890   5.7135450   9.3534870  18.1892280
   5.2126430   8.8537110  19.5275850  12.7005330  10.4183470  30.8021080
  13.1765050  10.8966360  31.4810160  13.3212490  10.3500960  30.0766580
  12.1038580   7.6096320  27.9621090  12.2301640   7.3708200  27.0438270
  12.1459960   6.7780860  28.4343170   5.9655320  11.3124320  26.5315900
   6.4799990  11.2232330  27.3338330   5.1224400  11.6584020  26.8243810
   7.9409720  11.5979660  15.9599900   7.7810860  11.3082600  16.8581730
   7.7756430  10.8219790  15.4245130   7.6435850   9.1067220  14.5197900
   6.9501010   9.1044510  13.8600180   8.3858710   8.6826540  14.0892070
   7.2085780  10.7329930  18.5946390   7.6642730   9.9519310  18.9085010
   7.5478300  11.4436750  19.1387570   2.6824450   2.7274360  23.3941560
   3.0494580   2.2532930  24.1402900   2.4929510   3.6015930  23.7349900
   9.7593590   4.9709350  22.1019010  10.4792710   5.4664640  21.7115120
   9.5575410   4.2927240  21.4572880   5.1412390   5.0418410  27.9888010
   5.0749700   4.1214080  27.7345600   4.5117530   5.1393850  28.7032650
   3.9312510   6.9090650  15.2198730   4.2728210   7.6532880  14.7242050
   3.1025220   7.2221770  15.5823560   5.0729120   7.8638980  27.7391810
   5.0873660   6.9319940  27.5210720   4.3654220   7.9498740  28.3781580
  10.2066190   2.0478800  14.0090420  10.1229910   2.4793020  13.1586860
  10.9260380   2.5077150  14.4417240  11.2840330   4.5046320  27.0860390
  10.5588520   5.0975100  26.8889780  11.8115790   4.4969860  26.2873760
  11.2353440   8.9021060  16.7372550  10.5929600   8.2476680  17.0116270
  10.8484100   9.3076150  15.9613220   6.8139920   6.2306490  20.5844240
   7.1663740   5.6334620  19.9245610   5.9302250   5.9050720  20.7552490
   2.9003200   6.9904180  17.9914650   3.5874330   7.5373390  18.3722240
   2.1135620   7.5344910  18.0264260   2.2030410   3.9950210  17.6040010
   2.6593190   4.8055460  17.8300200   1.8518620   3.6773350  18.4358500
   4.5063020   9.5056550  24.8332310   5.1505240   9.7115930  25.5105730
   4.8692460   8.7444950  24.3803160   5.7795100   7.5088900  23.5509760
   6.4217330   6.8082060  23.6641930   6.3044450   8.2887340  23.3706650
   9.6250820   7.7937520  13.2748900   9.3988400   7.0767960  13.8673540
   9.2347020   7.5449960  12.4370650   7.5532720   8.3083800  26.7545820
   7.8888960   8.8950490  27.4323740   6.6333060   8.1776510  26.9843610
   9.2067070   5.7109460  14.9363060   8.9188770   6.1722150  15.7240940
  10.0019240   5.2507230  15.2047280   3.3821300   8.3575130  29.9233880
   3.0618170   7.6384370  30.4679570   2.7079660   9.0330200  29.9969940
   4.4095070   9.2663820  13.5292220   4.5107050   9.0627810  12.5994200
   3.5096810   9.0122100  13.7340000   3.0513180  11.7850140  18.2239890
   3.3054680  11.7471530  17.3019260   2.1025660  11.6583470  18.2168140
   9.0565760   2.7042020  19.7998400   8.1155900   2.7192250  19.9746090
   9.3709830   1.9177980  20.2458700  11.0591340   9.8750870  21.4752660
  11.1838760  10.6982040  21.9476470  11.9256900   9.6641600  21.1276810
   6.3731780   7.2608020  30.2830780   5.7669940   7.2839620  29.5426530
   6.0685890   6.5291060  30.8198030   7.8032150  10.9888310  28.8940190
   8.7553900  10.9046330  28.8440430   7.6560370  11.6530020  29.5673980
  10.6941350  10.3682520  14.3932100  10.4082860   9.9547660  13.5786280
  10.4960900  11.2970230  14.2732620   2.1588580   6.3615800  12.8337710
   2.0539220   5.7468150  13.5599090   1.9912800   5.8381690  12.0500720
   2.3102900   5.0472600  28.8126940   1.5448570   5.6157600  28.7281610
   2.4918860   4.7548810  27.9195170   5.3991310   5.4235830  13.4379700
   4.8501410   5.8705130  14.0822440   6.0210570   4.9185080  13.9617370
   9.4526250   6.7777930  29.3701960  10.1935720   7.1153690  28.8669420
   8.6898930   6.9469990  28.8171730   3.5794070   3.4064360  12.5822100
   4.0999730   2.6913380  12.2163250   4.2262470   4.0450230  12.8822610
   8.1271910   4.8292760  27.9057170   8.5412930   4.9837840  28.7547590
   7.1922910   4.9547980  28.0682950   8.5994080   2.1688920  29.9096320
   9.1814850   1.4141240  29.8216800   8.7755850   2.6996360  29.1327800
   2.8887140   4.7813240  25.8753100   3.3075250   5.6245970  25.7029340
   1.9695770   4.9185280  25.6459880   5.2251040   2.5129420  27.2590940
   5.3447250   1.9170560  27.9985780   6.0845040   2.5499110  26.8392240
   7.5638940   3.0666610  25.8353450   7.0374160   3.5909230  25.2318590
   7.9070280   3.6994000  26.4663180   3.5956770  12.3217460  27.2497480
   3.5215470  13.2252600  27.5569850   2.6935610  12.0029360  27.2219550
   4.1442100  11.4875970  14.8723840   5.0392890  11.8260940  14.8942600
   4.1759730  10.7655380  14.2448120  11.1236450  10.0179640  27.5790040
  10.5238440  10.0772200  26.8353960  11.2530350   9.0784620  27.7086890
  12.3637900   7.7597460  12.9159750  11.5330860   7.8274110  13.3866980
  12.5409730   8.6501580  12.6126610  11.8194360   4.5044940  15.4193950
  12.5813270   5.0741590  15.5253640  11.8348730   3.9372140  16.1902260
  12.8254330   5.3595040  20.2635880  13.1963160   4.5762360  19.8571850
  13.4656260   6.0484140  20.0853180   9.8088090   6.7431620  25.6766200
   8.9947930   7.1728780  25.9391990  10.2162290   7.3550030  25.0635250
  11.8713530   4.7979310  12.5766470  12.1462370   5.7058190  12.4485690
  11.6824270   4.7341840  13.5128460  11.7678870   2.7348300  17.5695900
  11.3922470   1.9676230  17.1377190  11.0381990   3.1171000  18.0570830
  11.1578490   1.8819820  27.2035420  10.9264580   1.6532570  26.3033370
  11.4183040   2.8019370  27.1580310   9.8664140  11.4950220  19.2034470
  10.4623210  11.1734790  18.5268890  10.1242290  11.0222040  19.9947740
  12.7336900  11.5022100  25.7545460  12.2395180  11.8990970  25.0372590
  12.1250190  10.8771310  26.1482740  10.4176350  12.1445520  23.0332200
   9.9579320  12.8961330  22.6590220   9.7888810  11.4251990  22.9747000
   3.5867570  11.3442250  23.0349310   3.8745380  11.0896550  22.1582320
   4.0990790  10.7919610  23.6254880   3.6539930  12.2658350  30.4017510
   4.5807240  12.0302620  30.4453470   3.6390360  13.0930350  29.9203540
  11.8884990  11.8083920  17.3991760  12.0637180  11.1221660  16.7552680
  11.1906560  12.3330970  17.0068430  10.2217490  11.4928210  30.2258550
  11.0142810  10.9977440  30.0184510  10.5150640  12.1718350  30.8334160
   4.4795190   4.1428170   2.9883870   3.7037290   3.6628610   3.2782440
   5.1308120   3.4633820   2.8140030   8.5002620   8.5488360   1.7683000
   8.0384150   7.7775600   2.0970170   9.3128170   8.5754430   2.2735450
   3.9204180   6.8185360   2.9954030   3.8512460   5.8775300   2.8343160
   4.6824040   6.9086770   3.5676600  10.5857730   8.6781690   5.1906320
   9.9021250   9.3480800   5.1822990  11.1252020   8.8762340   4.4251180
   8.1216470  10.5225820   3.9051500   8.1343630  10.1188110   3.0373760
   7.5691690  11.2973110   3.8012930   7.5201910   5.4255660   5.2334110
   7.9370700   5.2115770   4.3987570   8.2441730   5.6828450   5.8042730
  11.4664010   3.8242880   5.3250350  10.6382640   3.8935970   4.8500480
  12.0614490   4.4097190   4.8566180   9.1206120  10.6571530   6.9586200
   8.6436680  11.4643720   6.7658810   8.4367910  10.0049860   7.1112410
  12.7005330  10.4183470  12.0277590  13.1765050  10.8966360  12.7066670
  13.3212490  10.3500960  11.3023090  12.1038580   7.6096320   9.1877600
  12.2301640   7.3708200   8.2694780  12.1459960   6.7780860   9.6599680
   5.9655320  11.3124320   7.7572410   6.4799990  11.2232330   8.5594840
   5.1224400  11.6584020   8.0500320   2.6824450   2.7274360   4.6198070
   3.0494580   2.2532930   5.3659410   2.4929510   3.6015930   4.9606410
   9.7593590   4.9709350   3.3275520  10.4792710   5.4664640   2.9371630
   9.5575410   4.2927240   2.6829390   5.1412390   5.0418410   9.2144520
   5.0749700   4.1214080   8.9602110   4.5117530   5.1393850   9.9289160
   5.0729120   7.8638980   8.9648320   5.0873660   6.9319940   8.7467230
   4.3654220   7.9498740   9.6038090  11.2840330   4.5046320   8.3116900
  10.5588520   5.0975100   8.1146290  11.8115790   4.4969860   7.5130270
   4.5063020   9.5056550   6.0588820   5.1505240   9.7115930   6.7362240
   4.8692460   8.7444950   5.6059670   5.7795100   7.5088900   4.7766270
   6.4217330   6.8082060   4.8898440   6.3044450   8.2887340   4.5963160
   7.5532720   8.3083800   7.9802330   7.8888960   8.8950490   8.6580250
   6.6333060   8.1776510   8.2100120   3.3821300   8.3575130  11.1490390
   3.0618170   7.6384370  11.6936080   2.7079660   9.0330200  11.2226450
  11.0591340   9.8750870   2.7009170  11.1838760  10.6982040   3.1732980
  11.9256900   9.6641600   2.3533320   6.3731780   7.2608020  11.5087290
   5.7669940   7.2839620  10.7683040   6.0685890   6.5291060  12.0454540
   7.8032150  10.9888310  10.1196700   8.7553900  10.9046330  10.0696940
   7.6560370  11.6530020  10.7930490   2.3102900   5.0472600  10.0383450
   1.5448570   5.6157600   9.9538120   2.4918860   4.7548810   9.1451680
   9.4526250   6.7777930  10.5958470  10.1935720   7.1153690  10.0925930
   8.6898930   6.9469990  10.0428240   8.1271910   4.8292760   9.1313680
   8.5412930   4.9837840   9.9804100   7.1922910   4.9547980   9.2939460
   8.5994080   2.1688920  11.1352830   9.1814850   1.4141240  11.0473310
   8.7755850   2.6996360  10.3584310   2.8887140   4.7813240   7.1009610
   3.3075250   5.6245970   6.9285850   1.9695770   4.9185280   6.8716390
   5.2251040   2.5129420   8.4847450   5.3447250   1.9170560   9.2242290
   6.0845040   2.5499110   8.0648750   7.5638940   3.0666610   7.0609960
   7.0374160   3.5909230   6.4575100   7.9070280   3.6994000   7.6919690
   3.5956770  12.3217460   8.4753990   3.5215470  13.2252600   8.7826360
   2.6935610  12.0029360   8.4476060  11.1236450  10.0179640   8.8046550
  10.5238440  10.0772200   8.0610470  11.2530350   9.0784620   8.9343400
   9.8088090   6.7431620   6.9022710   8.9947930   7.1728780   7.1648500
  10.2162290   7.3550030   6.2891760  11.1578490   1.8819820   8.4291930
  10.9264580   1.6532570   7.5289880  11.4183040   2.8019370   8.3836820
  12.7336900  11.5022100   6.9801970  12.2395180  11.8990970   6.2629100
  12.1250190  10.8771310   7.3739250  10.4176350  12.1445520   4.2588710
   9.9579320  12.8961330   3.8846730   9.7888810  11.4251990   4.2003510
   3.5867570  11.3442250   4.2605820   3.8745380  11.0896550   3.3838830
   4.0990790  10.7919610   4.8511390   3.6539930  12.2658350  11.6274020
   4.5807240  12.0302620  11.6709980   3.6390360  13.0930350  11.1460050
  10.2217490  11.4928210  11.4515060  11.0142810  10.9977440  11.2441020
  10.5150640  12.1718350  12.0590670
 176.0958360 100.4693210  61.9964970  90.0000000  90.0000000  90.0000000
